# vtk DataFile Version 3.0
Mesh2HRTF Files
ASCII
DATASET POLYDATA
POINTS 4 float
 1.0000  0.0000  0.0000
 0.0000  1.0000  0.0000
-1.0000  0.0000  0.0000
 0.0000 -1.0000  0.0000

POLYGONS 2 8
3 2 3 1
3 3 0 1

CELL_DATA 2

SCALARS RMS_velocity-source_1 float 1
LOOKUP_TABLE default
0.0
0.0

SCALARS RMS_velocity-source_2 float 1
LOOKUP_TABLE default
0.0
0.0

