# vtk DataFile Version 3.0
Mesh2HRTF Files
ASCII
DATASET POLYDATA
POINTS 4 float
 1.0000  0.0000  0.0000
 0.0000  1.0000  0.0000
-1.0000  0.0000  0.0000
 0.0000 -1.0000  0.0000

POLYGONS 2 8
3 2 3 1
3 3 0 1

CELL_DATA 2

SCALARS 20log(pressure/1)-source_1 float 1
LOOKUP_TABLE default
-36.34587
-36.4766

SCALARS 20log(pressure/1)-source_2 float 1
LOOKUP_TABLE default
-35.64046
-35.42918

