# vtk DataFile Version 3.0
Mesh2HRTF Files
ASCII
DATASET POLYDATA
POINTS 1208 float
 0.0021  0.0865 -0.0122
 0.0015  0.0873 -0.0034
 0.0097  0.0868 -0.0039
 0.0103  0.0859 -0.0125
 0.0067  0.0173 -0.0854
-0.0024  0.0177  0.0856
-0.0082  0.0870  0.0048
-0.0025  0.0361  0.0796
 0.0005  0.0044 -0.0874
 0.0077  0.0261 -0.0831
-0.0105  0.0129  0.0858
 0.0016  0.0848 -0.0212
 0.0105  0.0842 -0.0209
-0.0095  0.0860  0.0129
-0.0005  0.0444  0.0754
 0.0033  0.0821 -0.0298
 0.0117  0.0818 -0.0283
 0.0070  0.0354 -0.0796
 0.0005  0.0518  0.0705
-0.0461  0.0047 -0.0741
 0.0081  0.0786 -0.0374
-0.0105  0.0842  0.0212
 0.0024  0.0586  0.0649
-0.0000  0.0747 -0.0454
 0.0103  0.0737 -0.0458
-0.0047  0.0642  0.0592
 0.0055  0.0644  0.0589
 0.0030  0.0697 -0.0527
 0.0124  0.0682 -0.0533
-0.0018  0.0703  0.0519
 0.0043  0.0450 -0.0749
 0.0047  0.0632 -0.0601
-0.0111  0.0815  0.0295
-0.0045  0.0755  0.0438
 0.0040  0.0749  0.0450
 0.0058  0.0549 -0.0677
-0.0113  0.0781  0.0377
-0.0026  0.0791  0.0371
 0.0068  0.0791  0.0365
-0.0040  0.0587 -0.0648
 0.0149  0.0486 -0.0711
-0.0031  0.0824  0.0289
 0.0040  0.0828  0.0273
-0.0120  0.0736  0.0456
-0.0031  0.0651 -0.0583
-0.0024  0.0849  0.0207
 0.0057  0.0848  0.0203
-0.0129  0.0683  0.0530
-0.0023 -0.0018  0.0873
-0.0068  0.0697 -0.0524
-0.0068  0.0576  0.0655
-0.0035  0.0788 -0.0376
-0.0011  0.0865  0.0127
 0.0072  0.0862  0.0126
-0.0080  0.0503  0.0711
-0.0054  0.0823 -0.0290
-0.0088  0.0424  0.0760
-0.0074  0.0849 -0.0195
 0.0002  0.0874  0.0047
 0.0086  0.0870  0.0045
 0.0067  0.0089 -0.0868
-0.0116  0.0333  0.0800
-0.0107  0.0230  0.0836
-0.0048  0.0866 -0.0102
 0.0160  0.0557 -0.0655
-0.0066  0.0871 -0.0030
 0.0002 -0.0382 -0.0786
 0.0117  0.0815  0.0294
 0.0158  0.0399 -0.0761
 0.0140  0.0836  0.0213
-0.0187  0.0827  0.0214
 0.0161  0.0306 -0.0803
 0.0157  0.0850  0.0130
-0.0192  0.0799  0.0298
-0.0049  0.0509 -0.0709
 0.0170  0.0857  0.0044
-0.0194  0.0762  0.0381
-0.0203  0.0715  0.0460
 0.0179  0.0855 -0.0042
 0.0055  0.0308  0.0816
-0.0115  0.0628 -0.0597
 0.0185  0.0845 -0.0129
-0.0150  0.0621  0.0596
 0.0188  0.0826 -0.0215
-0.0107  0.0741 -0.0451
 0.0190  0.0797 -0.0303
-0.0162  0.0552  0.0658
 0.0186  0.0761 -0.0387
 0.0119  0.0578  0.0646
 0.0203  0.0713 -0.0463
-0.0147  0.0780 -0.0368
-0.0166  0.0480  0.0711
 0.0095  0.0694  0.0523
 0.0139  0.0620 -0.0600
 0.0131  0.0738  0.0451
-0.0135  0.0819 -0.0273
-0.0166  0.0409  0.0754
 0.0222  0.0818  0.0214
 0.0239  0.0831  0.0130
-0.0023  0.0079  0.0870
-0.0231 -0.0138 -0.0831
-0.0223  0.0357  0.0766
 0.0252  0.0837  0.0043
-0.0027  0.0273  0.0830
-0.0124  0.0856 -0.0122
 0.0261  0.0834 -0.0045
-0.0149  0.0860 -0.0040
-0.0017  0.0216 -0.0848
 0.0265  0.0822 -0.0133
 0.0052  0.0385  0.0783
 0.0267  0.0802 -0.0222
 0.0094  0.0449  0.0745
 0.0271  0.0771 -0.0308
 0.0084  0.0526  0.0693
 0.0284  0.0730 -0.0387
 0.0001  0.0296 -0.0823
-0.0183  0.0179  0.0835
 0.0158  0.0627  0.0588
 0.0219  0.0657 -0.0534
 0.0198  0.0672  0.0524
 0.0231  0.0594 -0.0599
 0.0098 -0.0370 -0.0786
 0.0236  0.0522 -0.0660
 0.0163  0.0774  0.0373
-0.0166  0.0858  0.0044
 0.0197  0.0798  0.0296
 0.0157  0.0210 -0.0834
-0.0179  0.0846  0.0129
 0.0333  0.0808  0.0042
 0.0341  0.0804 -0.0046
-0.0277  0.0740  0.0375
-0.0146  0.0545 -0.0667
-0.0283  0.0698  0.0443
 0.0345  0.0792 -0.0134
-0.0242  0.0655  0.0526
 0.0346  0.0771 -0.0222
-0.0165  0.0676 -0.0529
 0.0351  0.0739 -0.0306
 0.0162  0.0495  0.0703
 0.0198 -0.0348 -0.0777
 0.0209  0.0548  0.0648
 0.0301  0.0679 -0.0461
 0.0256  0.0596  0.0587
 0.0312  0.0621 -0.0531
-0.0250  0.0586  0.0599
-0.0211  0.0716 -0.0457
 0.0220  0.0718  0.0448
 0.0246 -0.0180 -0.0820
 0.0248  0.0752  0.0370
 0.0262  0.0434 -0.0713
 0.0278  0.0775  0.0293
-0.0245  0.0438  0.0715
 0.0302  0.0792  0.0212
-0.0215  0.0794 -0.0296
-0.0170  0.0833 -0.0203
 0.0320  0.0804  0.0128
 0.0060  0.0125  0.0864
-0.0206  0.0840 -0.0127
 0.0422  0.0754 -0.0130
 0.0424  0.0734 -0.0212
 0.0129  0.0355  0.0789
-0.0232  0.0842 -0.0044
 0.0425  0.0708 -0.0285
-0.0249  0.0837  0.0042
 0.0384  0.0689 -0.0378
 0.0295  0.0512  0.0645
 0.0394  0.0632 -0.0459
-0.0261  0.0825  0.0128
-0.0033  0.0363 -0.0795
 0.0303  0.0639  0.0514
 0.0316  0.0558 -0.0594
 0.0296  0.0700  0.0432
 0.0315  0.0495 -0.0649
 0.0327  0.0723  0.0365
-0.0069  0.0430 -0.0758
 0.0356  0.0744  0.0290
 0.0252  0.0341 -0.0765
 0.0379  0.0759  0.0210
-0.0269  0.0804  0.0214
-0.0273  0.0775  0.0297
 0.0398  0.0769  0.0126
-0.0206  0.0605 -0.0596
-0.0341  0.0602  0.0535
 0.0411  0.0771  0.0041
-0.0262  0.0643 -0.0531
-0.0252  0.0513  0.0661
 0.0419  0.0767 -0.0046
-0.0255  0.0745 -0.0379
 0.0482  0.0664 -0.0302
 0.0465  0.0631 -0.0386
 0.0244  0.0462  0.0701
-0.0468 -0.0737  0.0046
 0.0510  0.0130 -0.0697
 0.0349  0.0549  0.0584
 0.0400  0.0570 -0.0529
-0.0255  0.0808 -0.0215
 0.0393  0.0506 -0.0596
 0.0366  0.0656  0.0448
 0.0370  0.0437 -0.0661
 0.0401  0.0683  0.0370
-0.0288  0.0814 -0.0132
 0.0430  0.0704  0.0290
-0.0193  0.0275  0.0807
 0.0453  0.0718  0.0208
-0.0313  0.0815 -0.0047
 0.0241  0.0244 -0.0804
 0.0472  0.0726  0.0124
-0.0330  0.0809  0.0040
-0.0341  0.0795  0.0128
 0.0485  0.0727  0.0039
 0.0058  0.0220  0.0844
-0.0348  0.0773  0.0214
 0.0492  0.0722 -0.0047
 0.0135  0.0266  0.0822
-0.0151  0.0454 -0.0731
 0.0494  0.0709 -0.0132
-0.0351  0.0743  0.0298
 0.0492  0.0689 -0.0216
 0.0192  0.0407  0.0750
 0.0488  0.0565 -0.0455
 0.0478  0.0505 -0.0531
-0.0352  0.0705  0.0378
 0.0402  0.0579  0.0518
-0.0347  0.0657  0.0460
 0.0438  0.0613  0.0444
-0.0313  0.0674 -0.0459
 0.0471  0.0641  0.0363
 0.0358  0.0353 -0.0715
 0.0499  0.0658  0.0284
-0.0334  0.0460  0.0664
 0.0523  0.0670  0.0204
 0.0380  0.0198 -0.0763
-0.0316  0.0383  0.0719
 0.0541  0.0676  0.0120
-0.0300  0.0765 -0.0300
-0.0337  0.0777 -0.0217
 0.0554  0.0676  0.0035
-0.0289  0.0304  0.0766
 0.0150  0.0120 -0.0854
 0.0560  0.0670 -0.0050
-0.0368  0.0782 -0.0133
-0.0391  0.0780 -0.0047
 0.0561  0.0657 -0.0135
-0.0408  0.0773  0.0041
 0.0556  0.0638 -0.0218
 0.0288  0.0358  0.0744
 0.0547  0.0613 -0.0298
 0.0320  0.0431  0.0690
 0.0536  0.0582 -0.0371
 0.0378  0.0460  0.0640
 0.0460  0.0444 -0.0597
 0.0437  0.0386 -0.0652
 0.0502  0.0577  0.0423
 0.0534  0.0593  0.0355
-0.0088  0.0277 -0.0825
 0.0563  0.0607  0.0279
 0.0326  0.0269 -0.0765
 0.0588  0.0616  0.0199
-0.0418  0.0757  0.0128
-0.0424  0.0734  0.0215
 0.0606  0.0620  0.0117
-0.0425  0.0702  0.0299
-0.0237  0.0470 -0.0698
 0.0618  0.0619  0.0032
-0.0423  0.0662  0.0382
-0.0242  0.0539 -0.0644
 0.0622  0.0612 -0.0054
-0.0420  0.0612  0.0461
-0.0301  0.0569 -0.0592
 0.0621  0.0599 -0.0139
 0.0211  0.0313  0.0789
 0.0614  0.0580 -0.0224
-0.0343  0.0533  0.0601
 0.0602  0.0555 -0.0306
-0.0380  0.0730 -0.0295
 0.0582  0.0523 -0.0389
-0.0415  0.0739 -0.0214
 0.0561  0.0482 -0.0467
 0.0437  0.0488  0.0579
-0.0320  0.0175  0.0794
 0.0494  0.0513  0.0506
-0.0443  0.0741 -0.0131
-0.0262  0.0223  0.0803
 0.0622  0.0547  0.0277
 0.0646  0.0554  0.0197
-0.0466  0.0738 -0.0046
-0.0111  0.0182 -0.0848
 0.0664  0.0557  0.0113
-0.0482  0.0729  0.0041
 0.0235  0.0141 -0.0831
 0.0675  0.0555  0.0028
 0.0139  0.0170  0.0847
-0.0491  0.0712  0.0128
 0.0679  0.0548 -0.0058
-0.0148  0.0351 -0.0787
-0.0495  0.0687  0.0214
 0.0676  0.0535 -0.0144
 0.0287  0.0259  0.0785
 0.0667  0.0517 -0.0229
-0.0496  0.0655  0.0297
 0.0651  0.0492 -0.0313
 0.0378  0.0367  0.0698
 0.0633  0.0457 -0.0394
 0.0447  0.0393  0.0641
-0.0494  0.0616  0.0375
 0.0513  0.0413  0.0575
 0.0544  0.0425 -0.0536
-0.0492  0.0572  0.0443
 0.0516  0.0367 -0.0603
 0.0553  0.0518  0.0436
 0.0473  0.0310 -0.0667
 0.0591  0.0536  0.0355
 0.0061  0.0031  0.0872
-0.0440  0.0540  0.0528
 0.0312  0.0173 -0.0799
-0.0362  0.0596 -0.0527
 0.0716  0.0489  0.0110
 0.0727  0.0486  0.0024
-0.0426  0.0468  0.0602
-0.0345  0.0709 -0.0378
 0.0729  0.0479 -0.0062
 0.0210  0.0220  0.0820
-0.0515  0.0694 -0.0131
 0.0725  0.0466 -0.0148
-0.0405 -0.0416 -0.0653
 0.0714  0.0447 -0.0231
 0.0367  0.0277  0.0744
 0.0699  0.0424 -0.0309
-0.0536  0.0689 -0.0046
 0.0682  0.0394 -0.0379
 0.0510  0.0319  0.0635
 0.0629  0.0392 -0.0464
-0.0257  0.0130  0.0825
 0.0598  0.0338 -0.0541
 0.0578  0.0423  0.0502
-0.0551  0.0678  0.0041
 0.0606  0.0470  0.0419
-0.0185  0.0078  0.0851
 0.0643  0.0476  0.0351
 0.0419  0.0260 -0.0722
 0.0674  0.0483  0.0275
-0.0560  0.0659  0.0128
 0.0699  0.0488  0.0194
-0.0562  0.0634  0.0214
-0.0235  0.0387 -0.0748
-0.0561  0.0600  0.0297
 0.0069  0.0002 -0.0872
 0.0772  0.0404 -0.0067
 0.0767  0.0392 -0.0152
-0.0557  0.0559  0.0376
 0.0754  0.0374 -0.0235
-0.0318  0.0490 -0.0651
 0.0735  0.0352 -0.0316
 0.0440  0.0299  0.0694
 0.0707  0.0325 -0.0399
-0.0543  0.0509  0.0457
 0.0673  0.0292 -0.0476
 0.0575  0.0325  0.0573
-0.0387  0.0514 -0.0593
-0.0517  0.0458  0.0534
 0.0558  0.0283 -0.0610
 0.0644  0.0400  0.0436
 0.0511  0.0221 -0.0674
 0.0687  0.0406  0.0356
-0.0419  0.0621 -0.0451
 0.0720  0.0413  0.0274
 0.0448  0.0166 -0.0732
 0.0745  0.0416  0.0191
-0.0409  0.0394  0.0664
-0.0419  0.0677 -0.0361
 0.0762  0.0416  0.0106
-0.0383  0.0318  0.0718
-0.0454  0.0688 -0.0290
 0.0771  0.0413  0.0020
 0.0350  0.0184  0.0780
-0.0487  0.0694 -0.0213
 0.0786  0.0298 -0.0241
 0.0763  0.0276 -0.0324
 0.0495  0.0236  0.0681
 0.0735  0.0247 -0.0404
 0.0560  0.0232  0.0630
-0.0351  0.0244  0.0762
-0.0616  0.0620  0.0039
 0.0640  0.0243 -0.0544
 0.0638  0.0320  0.0506
 0.0599  0.0195 -0.0606
 0.0686  0.0329  0.0430
 0.0563  0.0144 -0.0653
 0.0727  0.0338  0.0348
-0.0622  0.0601  0.0126
 0.0759  0.0341  0.0268
-0.0251  0.0292 -0.0785
 0.0783  0.0342  0.0185
-0.0107  0.0026  0.0867
-0.0624  0.0574  0.0212
 0.0799  0.0340  0.0101
-0.0620  0.0539  0.0296
 0.0223  0.0028 -0.0845
 0.0808  0.0335  0.0015
-0.0319  0.0410 -0.0703
-0.0613  0.0494  0.0378
 0.0808  0.0327 -0.0071
-0.0605  0.0437  0.0454
-0.0454  0.0531 -0.0526
 0.0800  0.0314 -0.0157
-0.0499  0.0390  0.0602
-0.0481  0.0625 -0.0377
 0.0763  0.0172 -0.0391
 0.0711  0.0185 -0.0473
 0.0626  0.0226  0.0568
 0.0667  0.0142 -0.0548
 0.0688  0.0218  0.0493
-0.0438  0.0242  0.0716
[...]
CELL_DATA 2412

SCALARS 20log(pressure/1)-source_1 float 1
LOOKUP_TABLE default
-23.04353
-26.22562
-48.41473
-48.90548
-28.9849
-28.87376
-30.74378
-26.86249
-52.26131
-33.0747
-34.35695
-50.05052
-49.57024
-36.32538
-55.80269
-21.70896
-45.83799
-51.63512
-39.60711
-44.90531
-44.35914
-40.96005
-41.83464
-43.30141
-17.18979
-43.02688
-43.76023
-51.98248
-40.76908
-44.92422
-51.55782
-39.30022
-38.66016
-49.65072
-50.64686
-36.80804
-35.91163
-15.52254
-33.57663
-32.49246
-51.19774
-50.72403
-51.19154
-29.86293
-28.75501
-51.61836
-21.76226
-25.05714
-50.25209
-24.82455
-24.04536
-49.693
-51.62898
-52.07115
-28.59548
-18.24547
-22.00942
-30.48784
-49.12913
-48.46003
-52.48076
-46.38815
-32.95802
-55.09394
-36.12635
-34.28933
-47.83594
-34.1812
-33.91286
-46.82839
-36.26778
-37.25305
-31.38724
-31.30527
-47.00632
-45.98124
-38.70835
-39.65728
-28.3883
-29.12584
-45.09754
-44.31504
-40.97124
-41.8203
-26.82447
-28.77098
-43.24699
-42.54844
-42.89024
-43.68708
-28.61487
-30.65236
-41.42197
-49.20474
-44.62471
-31.65364
-33.33526
-48.57675
-38.59968
-34.56702
-36.03367
-46.3501
-37.01435
-37.13821
-38.34037
-35.92635
-46.15982
-39.50869
-40.66198
-44.90199
-47.19499
-41.73191
-42.6692
-47.65921
-42.77291
-43.62398
-33.61978
-41.61681
-41.17988
-32.15731
-45.44768
-39.63306
-55.29262
-49.21134
-51.5158
-33.80217
-34.10889
-51.13235
-50.60121
-51.12062
-21.9609
-32.22662
-33.05085
-25.14994
-50.67343
-50.25352
-51.12118
-31.74989
-33.05564
-51.60232
-26.32926
-28.8544
-49.71239
-32.71804
-34.1647
-49.26135
-52.07003
-30.72684
-34.56932
-35.93913
-32.52017
-48.15049
-36.73628
-37.9668
-47.46802
-47.05474
-38.89219
-39.99329
-45.76326
-48.60979
-40.90032
-41.96153
-34.2634
-44.56633
-42.80129
-35.60536
-43.5839
-43.30143
-37.14135
-44.38197
-42.1773
-52.15934
-45.20169
-45.8977
-55.17852
-39.26103
-46.63275
-47.34765
-37.67832
-37.541
-47.95695
-48.66448
-35.76717
-35.75489
-38.20938
-45.93768
-39.565
-35.23085
-36.22435
-50.21601
-40.49874
-45.09721
-44.27628
-35.87951
-36.97583
-41.71419
-49.22109
-42.60343
-37.1294
-38.21407
-48.59197
-43.22744
-38.73223
-39.77375
-43.54978
-55.27813
-40.50923
-41.62192
-46.38944
-46.24645
-42.36191
-40.76114
-45.35443
-45.20071
-45.29119
-43.6939
-44.2569
-39.36257
-44.4594
-45.2255
-38.65397
-41.92521
-45.95238
-46.14853
-40.49787
-40.3161
-46.70949
-36.86559
-38.91087
-38.9035
-36.00483
-47.4922
-37.46665
-37.65597
-47.94263
-33.38301
-53.06894
-36.20382
-36.65315
-48.70849
-49.01064
-56.22629
-27.44384
-35.36713
-36.11797
-51.88164
-50.67445
-49.53452
-39.33342
-40.18873
-50.06274
-48.48784
-40.52306
-41.30837
-47.15562
-23.65746
-41.98655
-55.59748
-24.75371
-46.96424
-55.11424
-43.36279
-46.04027
-33.44163
-44.01682
-44.91777
-34.93814
-44.11599
-45.48411
-48.22527
-43.02493
-42.78171
-36.04157
-46.56106
-41.38279
-41.32719
-47.33218
-37.25584
-40.23006
-40.37567
-47.48137
-38.39577
-39.23061
-39.53291
-39.37874
-40.50282
-49.85814
-38.42922
-38.91245
-41.29115
-42.42056
-50.3372
-42.92724
-37.97081
-38.63631
-44.37594
-41.66591
-41.35239
-45.22239
-37.96884
-38.77369
-45.95738
-50.24085
-39.9123
-55.19631
-38.44751
-39.31526
-49.72167
-46.66575
-42.85439
-43.54622
-46.87218
-47.29989
-43.91425
-44.91292
-54.83505
-46.01273
-45.40521
-36.63096
-45.16704
-47.89678
-48.63289
-46.24331
-35.03395
-43.35809
-46.73723
-47.433
-42.53384
-42.69964
-47.83913
-48.50299
-41.70344
-41.92985
-48.91873
-32.76777
-40.96706
-41.30984
-48.48901
-30.52017
-31.00932
-40.44002
-40.91892
-28.82266
-30.07072
-28.78876
-30.63892
-40.18615
-40.78611
-30.78447
-32.56784
-47.39248
-46.9199
-40.25726
-40.93122
-39.79125
-40.76737
-46.76519
-41.50348
-40.62334
-41.35503
-42.42991
-44.90727
-43.04929
-41.26508
-42.01125
-43.88386
-43.77782
-42.09274
-42.82946
-43.58152
-47.77105
-44.55425
-46.24464
-45.46639
-45.26179
-46.65182
-47.36729
-44.52685
-44.72328
-47.75443
-42.49879
-43.8031
-43.96039
-46.10763
-39.74
-43.08313
-43.33524
-47.43956
-49.59707
-42.55979
-42.91482
-38.36762
-50.02145
-56.27627
-42.22643
-42.67325
-49.18661
-56.36159
-35.29961
-33.6194
-42.09551
-42.62069
-34.26487
-51.21277
-32.85901
-33.90598
-42.17993
-42.76432
-50.74621
-50.64305
-33.09599
-34.41083
-42.47824
-43.10404
-51.59668
-34.30762
-35.65237
-42.97019
-43.60747
-49.57826
-49.11955
-43.60212
-44.21834
-48.46076
-48.35103
-44.33234
-44.9272
-47.54518
-47.54485
-45.35013
-36.04974
-46.91126
-37.28733
-48.67668
-48.31574
-44.85116
-45.01863
-48.77319
-48.24992
-44.35577
-44.63941
-37.94366
-39.03913
-44.01991
-44.37667
-45.51647
-45.29946
-44.30838
-43.81775
-44.23737
-45.20813
-44.51016
-45.81679
-50.93898
-43.75897
-44.23205
-42.42482
-46.86692
-51.32117
-41.27968
-43.85199
-44.37173
-54.18385
-48.10861
-54.24274
-38.56996
-44.10412
-44.65295
-37.18422
-49.70696
-37.54997
-44.49574
-45.06135
-49.09885
-53.48785
-45.00381
-45.5813
-36.29788
-51.58961
-45.6097
-46.20702
-48.32176
-36.94153
-46.16363
-46.76527
-49.68065
-47.02455
-46.87285
-47.64293
-46.37376
-46.54866
-47.86334
-35.97095
-45.81388
-45.8266
-49.96433
-36.85857
-45.3822
-45.72839
-36.27445
-37.31061
-50.81811
-45.25947
-45.65084
-50.1576
-37.14264
-51.06544
-38.21746
-45.24318
-45.67406
-49.32332
-38.3896
-39.42591
-39.82493
-45.33946
-45.80524
-40.79311
-50.75055
-41.325
-42.22725
-45.55487
-46.04127
-50.2217
-50.24848
-46.43057
-45.87667
-46.37978
-49.72473
-49.85985
-46.30149
-46.81905
-48.78164
-42.84227
-46.82729
-47.36682
-43.68132
-48.48859
-47.4731
-48.11604
-47.92884
-48.12955
-48.30201
-43.65258
-47.56382
-47.16778
-47.89425
-48.52733
-41.31801
-46.40647
-48.72301
-49.29228
-45.93396
-46.18052
-49.3499
-49.80167
-45.60778
-45.90115
-52.07121
-52.09502
-48.35307
-51.66432
-46.58091
-46.97509
-51.70137
-40.05571
-51.92371
-40.2432
-46.67821
-47.09306
-49.38033
-39.09722
-39.51104
-52.12283
-46.85931
-47.2912
-50.72598
-50.7362
-38.58995
-47.1267
-47.56895
-50.53672
-39.20932
-47.4805
-47.92433
-50.29598
-50.15802
-47.93698
-48.38502
-38.50415
-49.2252
-48.59422
-39.27314
-48.952
-51.08721
-51.11934
-48.92557
-38.82437
-47.85663
-49.056
-49.62883
-47.38458
-47.59231
-49.74868
-39.68366
-46.94472
-47.20144
-50.56589
-39.50319
-46.76085
-47.06392
-40.39354
-50.51487
-46.63191
-46.96604
-52.46685
-50.65374
-40.45537
-46.56731
-46.93263
-41.33242
-48.39748
-41.58138
-42.42017
-48.03888
-48.4281
-47.81986
-42.80891
-43.58479
-48.26646
-48.66776
-46.73159
-44.08864
-48.56313
-48.97465
-44.77248
-49.69855
-48.92377
-49.337
-49.41673
-46.11734
-49.17915
-49.56145
-45.43878
-49.22037
-49.53672
-50.08732
-48.82047
-44.51214
-50.14415
-46.65158
-41.44451
-48.19669
-41.67388
-50.27706
-47.9678
-48.26649
-50.36326
-49.90098
-47.8743
-48.16622
-40.85603
-41.30303
-47.78635
-48.10009
-50.92778
-40.6114
-41.18892
-47.75596
-48.09443
-51.86668
-51.42817
-40.65188
-41.32237
-47.7897
-48.14917
-51.14218
-40.96199
-41.69049
-50.44455
-47.88143
-48.25596
-41.51702
-50.77427
-49.54746
-49.91578
-50.41493
-50.54142
-49.83516
-50.21194
-50.05992
-50.29666
-50.17352
-50.6552
-49.99824
-42.2734
-50.69145
-49.71981
-42.27548
-49.19295
-43.03626
-50.62023
-48.93409
-49.31964
-50.71393
-51.1397
-48.96475
-49.23071
-51.36059
-51.27835
-48.86726
-49.14444
-50.84605
-51.87418
-48.82299
-49.12105
-43.18587
-51.39494
-43.93701
-48.82719
-49.14162
-48.00248
-44.19407
-44.93202
-47.47339
-48.87553
-49.20331
-45.23906
-45.97222
-46.2332
-52.17013
-48.96763
-49.30744
-46.1525
-46.79152
-52.29765
-45.53817
-49.10738
-49.45897
-47.0927
-47.86432
-43.75138
-49.30088
-49.66214
-50.92916
-48.24706
-51.08987
-42.75257
-42.71145
-50.31731
-48.96555
-51.1557
-50.04451
-50.40596
-51.14849
-51.57925
-50.08558
-50.25832
-51.57805
-42.40181
-49.79951
-50.03966
-42.93115
-42.50554
-49.76376
-50.03399
-43.09787
-42.79986
-49.77081
-50.05363
-43.43336
-43.27029
-51.75747
-49.80373
-50.09636
-43.92703
-49.81468
-52.05814
-43.8975
-49.86333
-50.1647
-44.56578
-51.70857
-49.14808
-49.18247
-49.9534
-50.26292
-51.2371
-51.21844
-44.658
-45.33288
-50.07814
-50.39477
-50.86111
-48.66824
-45.52581
-50.24156
-50.56229
-46.21052
-47.66747
-50.44488
-50.76567
-46.47427
-50.91619
-50.69808
-51.01867
-51.13014
-47.1613
-52.08072
-47.09377
-47.42294
-50.72827
-48.08359
-51.97241
-50.59448
-50.83898
-51.81426
-45.73638
-50.61373
-50.86872
-48.36504
-52.29347
-50.64889
-50.9136
-45.02164
-52.24818
-48.92834
-50.69926
-50.97036
-43.47876
-49.27364
-49.861
-42.86097
-50.76556
-51.04247
-43.20011
-50.15826
-50.68377
-42.51204
-50.85208
-51.13492
-42.94843
-55.34565
-44.41282
-44.97066
-50.96336
-51.25095
-52.02711
-52.48188
-44.81999
-51.10205
-51.39372
-45.39535
-52.51453
-51.27209
-51.56791
-45.34987
-45.93641
-51.47417
-51.76706
-45.99651
-51.22899
-51.56446
-51.82493
-51.01346
-51.34177
-51.71894
-52.12992
-51.30868
-51.55737
-52.55227
-52.83824
-51.3851
-51.63456
-52.73695
-46.59218
-51.45158
-51.70078
-46.7564
-47.36896
-52.60846
-51.51656
-51.76776
-47.63957
-48.35153
-52.55567
-47.30407
-51.58787
-51.84206
-48.62225
-46.74503
-49.02286
-45.35265
-51.67219
-51.93126
-49.31946
-51.59456
-44.74738
-44.98729
-51.77104
-52.03157
-51.40041
-51.6393
-50.22694
-51.88525
-52.14683
-51.40198
-51.72311
-52.02062
-52.28379
-51.06199
-44.15263
-52.17077
-52.43852
-44.49021
-51.78432
-52.33807
-52.68718
-51.92433
-50.98357
-52.65224
-43.98561
-44.41798
-51.49741
-43.98832
-52.4604
-51.32992
-51.58773
-52.38368
-52.70052
-52.18857
-52.41835
-44.47771
-51.42149
-44.13351
-52.25974
-52.49031
-44.6637
-51.53946
-51.96829
-52.95802
-52.33309
-52.56422
-46.65548
-47.16777
-52.63655
-50.28693
-52.41791
-52.65194
-52.89073
-47.20494
-47.71558
-48.90129
-52.50496
-52.73562
-47.86504
-48.36265
-48.4998
-52.5942
-52.82263
-48.64603
-48.69443
-52.69672
-52.92898
-49.46502
-51.95553
-52.82791
-53.0653
-52.08381
-48.06799
-53.06371
-47.84124
-49.23337
-52.25413
-47.06991
-52.98808
-52.13269
-49.47319
-52.89637
-53.19159
-46.58882
-52.02473
-53.09343
-49.96336
-52.00934
-52.25087
-45.73491
-50.77962
-52.11499
-52.34504
-45.41294
-45.77865
-53.00111
-53.20968
-51.79394
-52.17232
-45.35556
-52.97988
-53.07578
-53.28083
-52.0872
-45.76358
-52.67628
-51.51074
-53.14867
-53.35358
-45.41576
-45.86572
-45.58304
-53.22788
-53.43604
-46.06026
-52.28588
-53.32174
-53.53456
-52.5111
-52.74291
-53.43234
-53.63626
-52.54708
-52.84346
-53.4327
-53.59667
-52.76958
-45.84656
-53.44311
-53.69943
-46.34149
-52.49734
-53.58917
-46.20346
-52.44809
-52.78345
-46.71009
-53.37895
-52.66495
-52.89637
-53.29151
-50.34578
-52.7615
-52.97878
-52.91132
-53.09978
-52.84697
-53.06023
-48.83628
-53.04442
-49.32486
-52.9261
-53.13656
-49.29103
-49.72025
-48.36893
-49.77678
-53.73067
-53.91467
-52.10349
-52.38987
-48.02924
-53.79877
-53.98514
-52.63625
-50.03416
-53.87723
-54.06829
-47.09659
-56.28091
-53.95787
-54.1545
-53.24491
-50.31151
-54.03002
-54.2275
-50.80869
-53.09367
-54.11127
-46.73838
-53.03095
-53.36292
-47.08775
-53.8368
-53.25568
-53.43497
-53.75021
-51.17355
-53.23884
-53.44346
-51.17665
-53.60146
-53.34387
-53.54638
-53.53868
-46.53462
-53.4413
-53.63798
-46.89523
-51.68052
-46.57896
-53.52592
-53.71772
-46.97596
-46.69781
-47.11604
-52.96326
-53.60043
-53.78827
-46.88253
-47.31592
-53.36275
-51.49804
-53.66701
-53.85135
-47.13233
-52.33312
-47.57634
-51.40675
-54.3707
-54.54217
-53.18031
-50.92117
-54.46253
-54.68583
-47.44922
-53.53446
-54.61841
-47.9034
-53.52419
-53.82373
-50.85093
-54.31446
-53.80151
-47.83812
-54.20139
-48.29592
-48.29958
-53.75548
-48.77065
-54.03234
-53.76147
-53.94767
-53.99113
-56.35602
-53.88014
-54.06348
-50.35305
-48.48426
-53.98147
-54.16012
-50.49181
-51.04118
-53.36177
-54.06713
-54.24018
-48.19144
-52.53799
-53.34128
-51.16909
-54.13888
-54.3069
-52.57991
-47.78749
-51.68359
-47.62397
-54.19841
-54.36215
-47.98154
-52.75025
-52.06928
-47.71986
-54.25256
-54.41443
-53.10021
-52.80252
-48.08919
-54.30737
-54.47
-53.09129
-53.44123
-53.92011
-54.80669
-54.16262
-55.56448
-54.68309
-47.86409
-48.25008
-54.10734
-51.68339
-54.38822
-54.08954
-54.30562
-54.32369
-54.59953
-54.21597
-54.40289
-54.33037
-48.05689
-54.3559
-54.52862
-48.4513
-53.85509
-54.46488
-54.62787
-48.29331
-53.78381
-48.69268
-54.55118
-54.70681
-48.57821
-48.97818
-48.9064
-49.31069
-54.61997
-54.76936
-49.77406
-49.29878
-49.71867
-49.60757
-54.67342
-54.81741
-49.7722
-50.2532
-49.26672
-50.32753
-54.71834
-54.85825
-54.21921
-53.4086
-49.12111
-54.76033
-54.89777
-53.79267
-51.65373
-54.81305
-54.95248
-48.58152
-48.95032
-54.92955
-56.30514
-52.05163
-53.86424
-54.70683
-54.82294
-48.58491
-54.58332
-54.6323
-48.93207
-54.64643
-54.81443
-52.43782
-54.28737
-54.79177
-54.94602
-54.02233
-48.73899
-54.89758
-55.04401
-52.80692
-49.09584
-53.96523
-54.98148
-55.1207
-52.83924
-52.52491
-53.66743
-52.27306
-55.04696
-55.17933
-48.91752
-49.27784
-52.43177
-52.16732
-55.09561
-55.2221
-49.11767
-49.47888
-52.30094
-52.92664
-55.13293
-55.25467
-49.34096
-49.70019
-52.58008
-55.16379
-55.28149
-51.8231
-49.59161
-55.19482
-55.30532
-49.94279
-53.84003
-55.15609
-55.26688
-54.145
-51.78465
-55.14725
-49.87011
-50.21596
-54.44237
-50.19859
-54.83813
-54.46619
-50.52972
-50.00925
-50.64378
-55.17059
-55.314
-55.7471
-49.84674
-55.27617
-55.40913
-56.28294
-50.75607
-49.5466
-55.35927
-55.48346
-50.84432
-51.403
-49.34171
-51.5202
-55.42167
-55.53782
-48.76996
-53.03396
-50.74129
-51.06245
-55.46451
-55.57333
-53.08892
-50.838
-50.99256
-51.29425
-55.4928
-55.59487
-50.7077
-51.09317
-51.34057
-55.50779
-55.60171
-50.33134
-54.13568
-55.50424
-55.58825
-54.17447
-54.4147
-55.51394
-56.36895
-54.41137
-54.67356
-54.30931
-55.28139
-54.72422
-51.25272
-55.13903
-55.24814
-51.61966
-54.74516
-55.07812
-55.1569
-54.79197
-55.03676
-54.94142
-50.1932
-55.03567
-55.19781
-51.73963
-53.80735
-49.83884
-55.68868
-55.79801
-52.02458
-49.67731
-52.07063
-52.49896
-55.74684
-55.84794
-49.53747
-52.49208
-49.5029
-49.83299
-55.78341
-55.87667
-49.68621
-53.42027
-50.0199
-52.95201
-55.80182
-55.88793
-53.73165
-49.87999
-50.21572
-55.80348
-55.88175
-52.89482
-50.08244
-55.78626
-55.84871
-50.41427
-54.58699
-55.67353
-55.71254
-54.87393
-50.29032
-55.55706
-55.64222
-50.61588
-54.98287
-55.50242
-55.5798
-55.0292
-55.2787
-55.42034
-50.50162
-55.28402
-55.42133
-50.82181
-55.04242
-55.38072
-55.51655
-54.88441
-51.8625
-55.50403
-55.63234
-52.12961
-54.50957
-55.60821
-55.72651
-53.36764
-52.05945
-53.30738
-52.36593
-56.05766
-56.13601
-50.65587
-52.23043
-52.52007
-50.55071
-56.06595
-56.13668
-52.48729
-52.92843
-50.25185
-56.05349
-56.11601
-52.91665
-50.15279
-56.01184
-56.06618
-50.53446
-52.84309
-55.94084
-56.00222
-50.31148
-55.10114
-55.88044
-55.94941
-55.19908
-55.4165
-55.82402
-50.64343
-55.48856
-52.80796
-50.54077
-55.49683
-50.86354
-55.60643
-55.34792
-50.75555
-55.66731
-55.78637
-51.06991
-55.07496
-55.7958
-55.9085
-54.9899
-50.95847
-55.89749
-56.00163
-51.26388
-52.75399
-51.15088
-55.97438
-56.06972
-51.4469
-53.23462
-52.85019
-53.705
-56.02772
-56.11496
-53.96699
-54.24651
-51.32543
-56.26759
-56.31777
-54.38768
-54.68893
-56.22624
-56.27577
-54.71383
-51.62293
-56.1846
-56.24934
-51.53963
-55.24294
-56.17022
-51.8325
-55.56651
-51.72954
-51.99966
-55.88302
-52.98699
-55.6992
-55.74139
-53.36303
-55.75214
-55.8999
-51.05024
-55.44922
-55.9115
-56.03018
-55.34488
-53.37548
-56.04532
-56.14787
-50.98303
-54.74456
-56.14587
-56.23755
-53.28183
-54.3951
-51.04577
-56.21905
-56.30132
-53.23621
-53.54351
-51.09289
-51.40053
-56.26738
-56.341
-53.45148
-53.11142
-51.33694
-51.63825
-56.29055
-56.35485
-53.13503
-53.76376
-51.55753
-51.84819
-56.29002
-56.34664
-52.08005
-55.1125
-56.38844
-56.29743
-55.4614
-51.75552
-54.67248
-56.2151
-52.0356
-55.76928
-56.09335
-51.94377
-55.85387
-51.93358
-52.20308
-55.78826
-52.086
-56.04615
-55.66969
-55.78396
-56.12984
-56.22949
-55.50273
-52.36622
-56.26146
-56.35019
-51.35079
-52.27963
-56.35756
-56.43692
-52.52975
-51.32964
-52.43446
-56.42614
-56.49616
-52.67379
-51.05112
-52.57131
-53.98806
-56.46934
-56.53028
-52.82362
-50.84976
-53.59217
-53.50202
-56.48675
-56.53864
-52.74863
-53.02401
-53.18106
-53.68228
-56.48043
-56.52484
-51.51219
-51.88942
-53.89192
-56.45388
-56.4924
-51.78078
-52.09637
-56.41471
-56.45056
-55.56749
-55.75744
-56.38195
-54.04221
-55.86817
-53.71378
-52.05935
-56.11269
-52.34649
-56.03257
-55.98302
-55.97124
-56.11601
-56.27639
-55.72475
-53.54415
-56.31656
-56.41231
-52.28556
-55.42759
-56.44204
-56.52253
-54.67957
-52.55329
-56.53416
-56.60302
-53.45189
-52.47778
-54.30566
-56.59843
-56.65734
-52.73157
-53.04854
-53.89855
-53.59575
-56.63695
-56.68683
-52.64452
-53.77383
-52.88954
-53.29591
-56.65047
-56.69176
-53.93564
-53.66461
-52.79764
-53.03302
-56.64105
-56.67481
-53.32744
-52.93744
-53.16405
-56.6123
-56.6392
-51.85849
-54.84715
-56.56921
-56.58602
-55.25593
-55.45613
-56.4725
-56.47986
-56.13161
-56.2842
-56.09954
-53.06903
-56.35955
-56.44699
-53.29015
-51.95915
-56.48291
-56.56359
-53.20448
-53.42559
-56.59486
-56.66217
-51.28146
-53.37324
-56.67937
-56.73675
-53.6037
-51.22731
-51.67126
-56.73853
-56.7868
-53.65438
-51.63575
-53.7325
-51.5292
-56.77279
-56.81195
-52.73049
-52.98948
-53.71549
-52.9442
-56.78219
-56.81299
-53.18867
-54.26119
-53.97113
-53.12524
-56.76858
-56.79131
-54.40378
-54.6907
-53.35669
-56.73299
-56.74726
-55.12195
-53.2813
-56.67197
-56.6789
-53.50167
-54.95468
-56.59867
-56.19289
-55.79991
-53.41821
-55.0588
-56.38786
-53.62833
-56.03522
-56.26559
-56.2478
-56.60332
-56.66576
-55.58075
-55.49443
-56.71167
-56.76767
-54.87131
-54.7774
-56.79277
-56.8401
-52.20205
-54.51673
-54.41261
-56.8483
-56.88687
-53.5403
-53.74456
-54.13203
-52.2419
-56.87875
-56.90825
-53.65742
-53.85828
-53.77884
-53.98022
-56.88397
-56.90514
-51.75202
-54.49231
-53.9173
-54.11932
-56.86595
-56.87862
-54.98695
-54.76733
-52.15872
-56.82515
-56.82857
-55.20154
-55.41498
-56.76124
-56.75056
-55.61474
-53.99154
-56.63611
-56.61182
-54.21197
-55.94382
-56.50224
-56.479
-56.08525
-56.22299
-56.3664
-52.09392
-56.33812
-54.14832
-52.0963
-56.05136
-53.97195
-56.52653
-55.86017
-55.78947
-56.8779
-56.91612
-52.33416
-54.13694
-52.45348
-56.92986
-56.9593
-52.7385
-54.19876
-53.70831
-53.9899
-56.95646
-56.97675
-53.91857
-53.85292
-53.69814
-54.05119
-56.95721
-56.96887
-52.24806
-53.97515
-54.16438
-52.58117
-56.93361
-56.93614
-54.08498
-55.00701
-54.26833
-56.88456
-56.87692
-55.4059
-54.18781
-56.80403
-56.78614
-54.36606
-52.55442
-56.6896
-56.66859
-54.28872
-55.94866
-56.57178
-54.46094
-56.23192
-52.612
-54.38668
-56.31938
-54.54845
-56.4592
-56.16139
-56.08845
-56.54432
-56.62759
-55.90514
-52.55493
-56.69363
-56.7548
-54.52652
-52.5678
-56.80022
-56.8477
-54.42232
-52.57576
-57.00754
-57.01865
-54.33505
-54.5693
-52.64315
-53.45693
-57.0034
-57.00571
-53.05057
-54.47583
-53.12841
-53.06526
-56.97412
-56.96704
-53.34275
-54.26703
-53.32403
-56.91858
-56.90157
-53.57087
-54.28442
-56.83613
-56.80865
-54.05918
-55.77434
-56.72973
-56.68661
-56.08498
-53.53504
-56.57708
-56.51947
-53.76099
-56.34583
-56.39889
-56.31987
-56.46502
-52.6082
-56.17135
-54.47517
-54.6451
-56.67421
-54.57339
-55.81395
-56.75685
-56.80148
-55.61461
-55.48744
-56.86036
-56.89831
-54.94609
-54.73692
-56.93604
-56.96557
-52.71194
-54.66113
-54.81899
-56.98485
-57.00559
-52.85841
-54.74148
-54.89421
-52.95546
-56.98895
-56.97243
-54.81421
-54.9569
-52.93173
-56.92738
-56.9007
-54.78914
-55.57728
-56.83762
-56.79798
-55.76123
-55.89645
-56.71532
-56.65923
-56.06992
-56.18319
-56.55536
-56.48539
-56.3166
-54.90744
-56.36708
-52.98787
-54.7892
-56.55367
-54.9964
-56.08004
-56.6461
-56.70841
-55.90321
-53.02492
-56.79278
-56.83605
-53.43925
-54.90398
-56.89801
-56.92922
-53.44018
-54.85822
-56.97
-56.99093
-53.16712
-54.63203
-53.6934
-57.0147
-57.02636
-53.4364
-53.74449
-54.68568
-54.16539
-57.03291
-53.97309
-54.27916
-53.75007
-53.6265
-57.02369
-57.01695
-54.51045
-53.87842
-54.59669
-53.8725
-56.81218
-56.76228
-54.09676
-53.80447
-56.67915
-56.60714
-56.1087
-54.62298
-56.50852
-54.0715
-54.27515
-56.40223
-54.53859
-56.27333
-56.51748
-56.5867
-56.13302
-54.23256
-56.68364
-56.7306
-54.42145
-55.80156
-56.82086
-56.85585
-55.58491
-52.31332
-56.91413
-56.93408
-54.3652
-54.54286
-56.97762
-56.98844