# vtk DataFile Version 3.0
Mesh2HRTF Files
ASCII
DATASET POLYDATA
POINTS 1208 float
 0.0021  0.0865 -0.0122
 0.0015  0.0873 -0.0034
 0.0097  0.0868 -0.0039
 0.0103  0.0859 -0.0125
 0.0067  0.0173 -0.0854
-0.0024  0.0177  0.0856
-0.0082  0.0870  0.0048
-0.0025  0.0361  0.0796
 0.0005  0.0044 -0.0874
 0.0077  0.0261 -0.0831
-0.0105  0.0129  0.0858
 0.0016  0.0848 -0.0212
 0.0105  0.0842 -0.0209
-0.0095  0.0860  0.0129
-0.0005  0.0444  0.0754
 0.0033  0.0821 -0.0298
 0.0117  0.0818 -0.0283
 0.0070  0.0354 -0.0796
 0.0005  0.0518  0.0705
-0.0461  0.0047 -0.0741
 0.0081  0.0786 -0.0374
-0.0105  0.0842  0.0212
 0.0024  0.0586  0.0649
-0.0000  0.0747 -0.0454
 0.0103  0.0737 -0.0458
-0.0047  0.0642  0.0592
 0.0055  0.0644  0.0589
 0.0030  0.0697 -0.0527
 0.0124  0.0682 -0.0533
-0.0018  0.0703  0.0519
 0.0043  0.0450 -0.0749
 0.0047  0.0632 -0.0601
-0.0111  0.0815  0.0295
-0.0045  0.0755  0.0438
 0.0040  0.0749  0.0450
 0.0058  0.0549 -0.0677
-0.0113  0.0781  0.0377
-0.0026  0.0791  0.0371
 0.0068  0.0791  0.0365
-0.0040  0.0587 -0.0648
 0.0149  0.0486 -0.0711
-0.0031  0.0824  0.0289
 0.0040  0.0828  0.0273
-0.0120  0.0736  0.0456
-0.0031  0.0651 -0.0583
-0.0024  0.0849  0.0207
 0.0057  0.0848  0.0203
-0.0129  0.0683  0.0530
-0.0023 -0.0018  0.0873
-0.0068  0.0697 -0.0524
-0.0068  0.0576  0.0655
-0.0035  0.0788 -0.0376
-0.0011  0.0865  0.0127
 0.0072  0.0862  0.0126
-0.0080  0.0503  0.0711
-0.0054  0.0823 -0.0290
-0.0088  0.0424  0.0760
-0.0074  0.0849 -0.0195
 0.0002  0.0874  0.0047
 0.0086  0.0870  0.0045
 0.0067  0.0089 -0.0868
-0.0116  0.0333  0.0800
-0.0107  0.0230  0.0836
-0.0048  0.0866 -0.0102
 0.0160  0.0557 -0.0655
-0.0066  0.0871 -0.0030
 0.0002 -0.0382 -0.0786
 0.0117  0.0815  0.0294
 0.0158  0.0399 -0.0761
 0.0140  0.0836  0.0213
-0.0187  0.0827  0.0214
 0.0161  0.0306 -0.0803
 0.0157  0.0850  0.0130
-0.0192  0.0799  0.0298
-0.0049  0.0509 -0.0709
 0.0170  0.0857  0.0044
-0.0194  0.0762  0.0381
-0.0203  0.0715  0.0460
 0.0179  0.0855 -0.0042
 0.0055  0.0308  0.0816
-0.0115  0.0628 -0.0597
 0.0185  0.0845 -0.0129
-0.0150  0.0621  0.0596
 0.0188  0.0826 -0.0215
-0.0107  0.0741 -0.0451
 0.0190  0.0797 -0.0303
-0.0162  0.0552  0.0658
 0.0186  0.0761 -0.0387
 0.0119  0.0578  0.0646
 0.0203  0.0713 -0.0463
-0.0147  0.0780 -0.0368
-0.0166  0.0480  0.0711
 0.0095  0.0694  0.0523
 0.0139  0.0620 -0.0600
 0.0131  0.0738  0.0451
-0.0135  0.0819 -0.0273
-0.0166  0.0409  0.0754
 0.0222  0.0818  0.0214
 0.0239  0.0831  0.0130
-0.0023  0.0079  0.0870
-0.0231 -0.0138 -0.0831
-0.0223  0.0357  0.0766
 0.0252  0.0837  0.0043
-0.0027  0.0273  0.0830
-0.0124  0.0856 -0.0122
 0.0261  0.0834 -0.0045
-0.0149  0.0860 -0.0040
-0.0017  0.0216 -0.0848
 0.0265  0.0822 -0.0133
 0.0052  0.0385  0.0783
 0.0267  0.0802 -0.0222
 0.0094  0.0449  0.0745
 0.0271  0.0771 -0.0308
 0.0084  0.0526  0.0693
 0.0284  0.0730 -0.0387
 0.0001  0.0296 -0.0823
-0.0183  0.0179  0.0835
 0.0158  0.0627  0.0588
 0.0219  0.0657 -0.0534
 0.0198  0.0672  0.0524
 0.0231  0.0594 -0.0599
 0.0098 -0.0370 -0.0786
 0.0236  0.0522 -0.0660
 0.0163  0.0774  0.0373
-0.0166  0.0858  0.0044
 0.0197  0.0798  0.0296
 0.0157  0.0210 -0.0834
-0.0179  0.0846  0.0129
 0.0333  0.0808  0.0042
 0.0341  0.0804 -0.0046
-0.0277  0.0740  0.0375
-0.0146  0.0545 -0.0667
-0.0283  0.0698  0.0443
 0.0345  0.0792 -0.0134
-0.0242  0.0655  0.0526
 0.0346  0.0771 -0.0222
-0.0165  0.0676 -0.0529
 0.0351  0.0739 -0.0306
 0.0162  0.0495  0.0703
 0.0198 -0.0348 -0.0777
 0.0209  0.0548  0.0648
 0.0301  0.0679 -0.0461
 0.0256  0.0596  0.0587
 0.0312  0.0621 -0.0531
-0.0250  0.0586  0.0599
-0.0211  0.0716 -0.0457
 0.0220  0.0718  0.0448
 0.0246 -0.0180 -0.0820
 0.0248  0.0752  0.0370
 0.0262  0.0434 -0.0713
 0.0278  0.0775  0.0293
-0.0245  0.0438  0.0715
 0.0302  0.0792  0.0212
-0.0215  0.0794 -0.0296
-0.0170  0.0833 -0.0203
 0.0320  0.0804  0.0128
 0.0060  0.0125  0.0864
-0.0206  0.0840 -0.0127
 0.0422  0.0754 -0.0130
 0.0424  0.0734 -0.0212
 0.0129  0.0355  0.0789
-0.0232  0.0842 -0.0044
 0.0425  0.0708 -0.0285
-0.0249  0.0837  0.0042
 0.0384  0.0689 -0.0378
 0.0295  0.0512  0.0645
 0.0394  0.0632 -0.0459
-0.0261  0.0825  0.0128
-0.0033  0.0363 -0.0795
 0.0303  0.0639  0.0514
 0.0316  0.0558 -0.0594
 0.0296  0.0700  0.0432
 0.0315  0.0495 -0.0649
 0.0327  0.0723  0.0365
-0.0069  0.0430 -0.0758
 0.0356  0.0744  0.0290
 0.0252  0.0341 -0.0765
 0.0379  0.0759  0.0210
-0.0269  0.0804  0.0214
-0.0273  0.0775  0.0297
 0.0398  0.0769  0.0126
-0.0206  0.0605 -0.0596
-0.0341  0.0602  0.0535
 0.0411  0.0771  0.0041
-0.0262  0.0643 -0.0531
-0.0252  0.0513  0.0661
 0.0419  0.0767 -0.0046
-0.0255  0.0745 -0.0379
 0.0482  0.0664 -0.0302
 0.0465  0.0631 -0.0386
 0.0244  0.0462  0.0701
-0.0468 -0.0737  0.0046
 0.0510  0.0130 -0.0697
 0.0349  0.0549  0.0584
 0.0400  0.0570 -0.0529
-0.0255  0.0808 -0.0215
 0.0393  0.0506 -0.0596
 0.0366  0.0656  0.0448
 0.0370  0.0437 -0.0661
 0.0401  0.0683  0.0370
-0.0288  0.0814 -0.0132
 0.0430  0.0704  0.0290
-0.0193  0.0275  0.0807
 0.0453  0.0718  0.0208
-0.0313  0.0815 -0.0047
 0.0241  0.0244 -0.0804
 0.0472  0.0726  0.0124
-0.0330  0.0809  0.0040
-0.0341  0.0795  0.0128
 0.0485  0.0727  0.0039
 0.0058  0.0220  0.0844
-0.0348  0.0773  0.0214
 0.0492  0.0722 -0.0047
 0.0135  0.0266  0.0822
-0.0151  0.0454 -0.0731
 0.0494  0.0709 -0.0132
-0.0351  0.0743  0.0298
 0.0492  0.0689 -0.0216
 0.0192  0.0407  0.0750
 0.0488  0.0565 -0.0455
 0.0478  0.0505 -0.0531
-0.0352  0.0705  0.0378
 0.0402  0.0579  0.0518
-0.0347  0.0657  0.0460
 0.0438  0.0613  0.0444
-0.0313  0.0674 -0.0459
 0.0471  0.0641  0.0363
 0.0358  0.0353 -0.0715
 0.0499  0.0658  0.0284
-0.0334  0.0460  0.0664
 0.0523  0.0670  0.0204
 0.0380  0.0198 -0.0763
-0.0316  0.0383  0.0719
 0.0541  0.0676  0.0120
-0.0300  0.0765 -0.0300
-0.0337  0.0777 -0.0217
 0.0554  0.0676  0.0035
-0.0289  0.0304  0.0766
 0.0150  0.0120 -0.0854
 0.0560  0.0670 -0.0050
-0.0368  0.0782 -0.0133
-0.0391  0.0780 -0.0047
 0.0561  0.0657 -0.0135
-0.0408  0.0773  0.0041
 0.0556  0.0638 -0.0218
 0.0288  0.0358  0.0744
 0.0547  0.0613 -0.0298
 0.0320  0.0431  0.0690
 0.0536  0.0582 -0.0371
 0.0378  0.0460  0.0640
 0.0460  0.0444 -0.0597
 0.0437  0.0386 -0.0652
 0.0502  0.0577  0.0423
 0.0534  0.0593  0.0355
-0.0088  0.0277 -0.0825
 0.0563  0.0607  0.0279
 0.0326  0.0269 -0.0765
 0.0588  0.0616  0.0199
-0.0418  0.0757  0.0128
-0.0424  0.0734  0.0215
 0.0606  0.0620  0.0117
-0.0425  0.0702  0.0299
-0.0237  0.0470 -0.0698
 0.0618  0.0619  0.0032
-0.0423  0.0662  0.0382
-0.0242  0.0539 -0.0644
 0.0622  0.0612 -0.0054
-0.0420  0.0612  0.0461
-0.0301  0.0569 -0.0592
 0.0621  0.0599 -0.0139
 0.0211  0.0313  0.0789
 0.0614  0.0580 -0.0224
-0.0343  0.0533  0.0601
 0.0602  0.0555 -0.0306
-0.0380  0.0730 -0.0295
 0.0582  0.0523 -0.0389
-0.0415  0.0739 -0.0214
 0.0561  0.0482 -0.0467
 0.0437  0.0488  0.0579
-0.0320  0.0175  0.0794
 0.0494  0.0513  0.0506
-0.0443  0.0741 -0.0131
-0.0262  0.0223  0.0803
 0.0622  0.0547  0.0277
 0.0646  0.0554  0.0197
-0.0466  0.0738 -0.0046
-0.0111  0.0182 -0.0848
 0.0664  0.0557  0.0113
-0.0482  0.0729  0.0041
 0.0235  0.0141 -0.0831
 0.0675  0.0555  0.0028
 0.0139  0.0170  0.0847
-0.0491  0.0712  0.0128
 0.0679  0.0548 -0.0058
-0.0148  0.0351 -0.0787
-0.0495  0.0687  0.0214
 0.0676  0.0535 -0.0144
 0.0287  0.0259  0.0785
 0.0667  0.0517 -0.0229
-0.0496  0.0655  0.0297
 0.0651  0.0492 -0.0313
 0.0378  0.0367  0.0698
 0.0633  0.0457 -0.0394
 0.0447  0.0393  0.0641
-0.0494  0.0616  0.0375
 0.0513  0.0413  0.0575
 0.0544  0.0425 -0.0536
-0.0492  0.0572  0.0443
 0.0516  0.0367 -0.0603
 0.0553  0.0518  0.0436
 0.0473  0.0310 -0.0667
 0.0591  0.0536  0.0355
 0.0061  0.0031  0.0872
-0.0440  0.0540  0.0528
 0.0312  0.0173 -0.0799
-0.0362  0.0596 -0.0527
 0.0716  0.0489  0.0110
 0.0727  0.0486  0.0024
-0.0426  0.0468  0.0602
-0.0345  0.0709 -0.0378
 0.0729  0.0479 -0.0062
 0.0210  0.0220  0.0820
-0.0515  0.0694 -0.0131
 0.0725  0.0466 -0.0148
-0.0405 -0.0416 -0.0653
 0.0714  0.0447 -0.0231
 0.0367  0.0277  0.0744
 0.0699  0.0424 -0.0309
-0.0536  0.0689 -0.0046
 0.0682  0.0394 -0.0379
 0.0510  0.0319  0.0635
 0.0629  0.0392 -0.0464
-0.0257  0.0130  0.0825
 0.0598  0.0338 -0.0541
 0.0578  0.0423  0.0502
-0.0551  0.0678  0.0041
 0.0606  0.0470  0.0419
-0.0185  0.0078  0.0851
 0.0643  0.0476  0.0351
 0.0419  0.0260 -0.0722
 0.0674  0.0483  0.0275
-0.0560  0.0659  0.0128
 0.0699  0.0488  0.0194
-0.0562  0.0634  0.0214
-0.0235  0.0387 -0.0748
-0.0561  0.0600  0.0297
 0.0069  0.0002 -0.0872
 0.0772  0.0404 -0.0067
 0.0767  0.0392 -0.0152
-0.0557  0.0559  0.0376
 0.0754  0.0374 -0.0235
-0.0318  0.0490 -0.0651
 0.0735  0.0352 -0.0316
 0.0440  0.0299  0.0694
 0.0707  0.0325 -0.0399
-0.0543  0.0509  0.0457
 0.0673  0.0292 -0.0476
 0.0575  0.0325  0.0573
-0.0387  0.0514 -0.0593
-0.0517  0.0458  0.0534
 0.0558  0.0283 -0.0610
 0.0644  0.0400  0.0436
 0.0511  0.0221 -0.0674
 0.0687  0.0406  0.0356
-0.0419  0.0621 -0.0451
 0.0720  0.0413  0.0274
 0.0448  0.0166 -0.0732
 0.0745  0.0416  0.0191
-0.0409  0.0394  0.0664
-0.0419  0.0677 -0.0361
 0.0762  0.0416  0.0106
-0.0383  0.0318  0.0718
-0.0454  0.0688 -0.0290
 0.0771  0.0413  0.0020
 0.0350  0.0184  0.0780
-0.0487  0.0694 -0.0213
 0.0786  0.0298 -0.0241
 0.0763  0.0276 -0.0324
 0.0495  0.0236  0.0681
 0.0735  0.0247 -0.0404
 0.0560  0.0232  0.0630
-0.0351  0.0244  0.0762
-0.0616  0.0620  0.0039
 0.0640  0.0243 -0.0544
 0.0638  0.0320  0.0506
 0.0599  0.0195 -0.0606
 0.0686  0.0329  0.0430
 0.0563  0.0144 -0.0653
 0.0727  0.0338  0.0348
-0.0622  0.0601  0.0126
 0.0759  0.0341  0.0268
-0.0251  0.0292 -0.0785
 0.0783  0.0342  0.0185
-0.0107  0.0026  0.0867
-0.0624  0.0574  0.0212
 0.0799  0.0340  0.0101
-0.0620  0.0539  0.0296
 0.0223  0.0028 -0.0845
 0.0808  0.0335  0.0015
-0.0319  0.0410 -0.0703
-0.0613  0.0494  0.0378
 0.0808  0.0327 -0.0071
-0.0605  0.0437  0.0454
-0.0454  0.0531 -0.0526
 0.0800  0.0314 -0.0157
-0.0499  0.0390  0.0602
-0.0481  0.0625 -0.0377
 0.0763  0.0172 -0.0391
 0.0711  0.0185 -0.0473
 0.0626  0.0226  0.0568
 0.0667  0.0142 -0.0548
 0.0688  0.0218  0.0493
-0.0438  0.0242  0.0716
[...]
CELL_DATA 2412

SCALARS phase_in_degree_unwrapped-source_1 float 1
LOOKUP_TABLE default
-33.26628
-10.11064
539.68954
566.37054
17.62724
14.9026
36.54556
-2.96942
789.50162
68.94125
89.09508
634.91136
605.29103
125.63884
1216.54508
-38.84353
417.04331
742.71998
202.55988
378.39678
357.40158
239.94072
265.6487
318.24834
-57.06553
304.52668
329.74967
766.00403
236.39317
374.70128
734.67421
196.76766
181.36382
610.28269
673.14121
139.47675
121.47541
-60.90088
79.35807
62.96861
707.82028
675.08086
710.90979
28.50588
16.05566
741.26611
-37.60332
-16.25389
643.71295
-18.87636
-24.4475
609.1431
742.51804
775.27147
14.59232
-54.14433
-37.77945
36.0194
576.13563
539.52464
808.09289
435.37783
69.60724
1093.45609
125.69415
91.13044
505.74385
89.96873
85.64159
457.493
127.99169
148.75904
47.42596
46.31852
465.07434
418.68718
181.81083
205.64901
11.83641
19.2859
381.88995
350.80574
241.92866
267.77007
-3.99133
14.33902
312.20923
289.13323
303.51111
331.2932
11.61724
34.8636
254.11602
583.9412
367.08897
47.46237
72.08187
548.76252
177.2938
92.0253
119.22601
439.2359
140.36885
142.10331
169.799
118.48272
430.85822
199.29601
230.25439
378.75577
478.3785
262.10486
291.89302
500.74197
300.04799
324.88537
77.97833
261.7519
248.43381
56.78594
395.10523
206.05037
1123.73022
580.5489
733.61646
83.56124
88.33921
706.07038
669.59117
704.98159
-36.65631
58.4683
70.46025
-15.53541
672.59906
644.05589
705.47959
50.44283
69.06348
739.44259
-6.78354
17.39248
610.31063
62.98369
85.86888
583.72456
774.78252
38.58572
92.1436
117.53066
63.08212
526.4206
133.23268
160.46393
491.87595
472.1193
182.29101
210.93168
413.95483
548.2547
236.24222
268.46113
90.39162
365.6078
295.9025
114.75658
328.46885
318.4202
145.91012
352.76551
279.79721
783.93334
384.63694
413.32984
1104.77937
196.66204
445.33694
479.76839
158.32081
155.48287
511.0428
549.3349
118.97974
118.67085
170.02816
417.74726
203.23288
106.11559
124.86917
645.34258
228.31582
382.8441
349.80707
117.20815
139.45541
263.80033
585.12331
292.68103
142.0379
166.53818
550.57048
312.42928
178.41629
204.99829
325.96119
1120.17593
224.43368
257.47024
441.5608
435.39884
280.64503
235.08976
397.09689
391.08967
393.53986
326.98371
353.42584
196.80227
355.46561
385.53231
179.47079
271.64358
415.6516
430.20962
229.08686
224.30634
455.02869
138.48983
187.68247
187.57418
121.49767
492.22234
154.13031
158.0955
514.20596
75.35819
858.92897
127.09804
135.80559
555.32332
571.69334
1320.16743
3.11452
109.94332
123.91343
761.16361
675.38113
602.71137
194.30518
216.91015
635.3623
545.25924
225.56395
248.17075
476.58742
-26.50297
268.54721
1180.44813
-18.87273
467.76549
1094.05741
314.67611
426.53541
76.87483
338.26599
373.17196
102.37702
348.15157
395.94461
527.45437
308.64376
300.54596
122.90389
441.84094
254.58384
253.1595
478.17159
148.32263
222.08634
226.01599
488.65812
174.12566
195.75701
203.28377
198.43719
228.33136
618.85481
175.57107
186.94781
250.84498
286.39287
648.52888
302.94312
163.94801
179.29041
356.74496
262.28351
253.35618
390.36155
162.83574
181.6675
421.1604
647.01325
212.3928
1106.52239
173.10877
194.46392
615.07328
452.63702
297.36169
322.20216
463.74959
482.16003
334.3817
374.7059
1060.53942
425.42715
392.77599
134.16636
389.78082
511.43478
550.1074
428.14121
104.09243
319.29033
449.68439
482.6371
291.74479
297.1643
502.72176
539.23286
265.22307
272.35663
563.01116
66.6125
243.09756
253.0547
542.57718
36.24068
42.66048
227.51358
240.55174
17.42257
31.43151
16.91843
38.2411
219.58263
235.68571
39.49566
64.03432
484.75672
463.2756
220.10134
239.12689
208.95928
235.9702
455.71753
257.05057
229.65925
250.85301
286.3701
376.11014
307.24815
247.52024
270.41213
337.60629
332.94028
272.48537
296.76812
326.7185
507.05958
363.0825
428.42698
399.39267
393.3973
445.92269
479.48898
363.20532
370.10128
498.4638
289.78857
335.42123
341.16253
426.88333
208.04322
310.34892
318.96112
488.25276
602.52799
292.56095
304.14438
172.99634
628.34736
1332.47581
280.96714
295.25905
581.43906
1352.60089
109.44276
80.5248
275.87159
292.69658
91.51859
712.46166
69.04029
85.62544
277.73263
296.71198
680.33687
671.99914
72.43975
93.86823
286.60331
307.47893
738.90789
91.61367
115.97402
302.36247
324.55933
602.87535
580.25938
324.14326
346.72462
543.90005
538.03964
350.97793
373.80904
495.56366
495.75376
390.51022
123.20122
465.72467
149.03151
551.39295
527.38037
374.7162
381.47343
552.74737
528.97825
356.1056
366.85993
163.44736
189.90304
343.52542
356.65538
400.92309
392.4913
352.69675
335.60921
350.85892
388.40943
361.54158
412.94111
688.1825
332.76438
350.04241
287.71564
460.70161
714.99841
251.51116
335.39016
354.4404
971.57007
521.61399
977.53517
178.19124
343.73521
364.36305
147.31628
614.53067
155.69316
357.72737
379.65975
579.44266
904.53494
376.83886
400.07471
129.5262
741.71111
400.79617
425.68164
536.10719
142.91002
423.4195
449.51029
610.94016
470.90543
456.16234
492.95928
440.95107
448.60179
503.85611
123.12853
416.13881
416.59861
624.57855
141.10589
396.86503
411.164
128.78975
150.43906
678.61822
391.44725
407.46067
638.34454
146.33189
696.09082
170.54876
390.21633
407.81512
588.64206
174.15644
200.02508
210.07866
393.38474
412.42256
237.10231
680.6241
252.27877
280.36846
401.19233
421.59584
646.47254
648.58865
440.94727
413.82409
435.54585
616.55876
624.88416
431.31375
454.49895
560.65732
299.91649
453.83694
479.11365
329.03614
545.15418
482.66655
517.01827
515.57623
526.21423
525.65101
330.04468
497.34036
473.47591
509.45317
537.75318
252.50016
440.72345
548.57635
581.60195
420.30707
431.07768
586.22896
614.23776
406.40357
418.7784
776.27047
778.57802
533.64258
739.43121
447.88492
465.68847
748.48724
216.23988
760.71821
221.76269
451.46293
470.45959
592.22934
192.2669
203.11975
774.1159
458.88923
479.0296
676.89685
680.05374
180.45616
470.52981
491.72041
667.65327
195.7974
486.74387
508.75249
648.92379
640.53974
508.41387
531.10773
178.43441
586.38484
541.11523
197.36207
570.96977
701.82311
704.3126
559.96943
185.84989
512.17801
567.07899
601.22059
488.36406
498.06217
608.93816
207.6713
465.76056
477.73067
665.36505
202.56757
457.20607
471.13953
226.54514
658.59837
451.13652
466.38642
808.09181
668.34323
227.87715
447.87141
464.41852
253.47571
536.96392
260.64603
287.2946
516.78651
536.87877
506.62073
299.64638
326.4208
527.60339
548.78808
454.25766
344.05882
542.2942
564.68684
369.82784
614.00082
560.94768
584.3247
597.48296
427.3172
574.91275
597.79254
396.99519
586.11847
595.86482
629.69195
563.59759
361.88845
633.57099
448.9906
256.33334
527.92644
263.7797
642.86767
516.37783
531.40212
648.41319
623.81688
511.48448
526.44862
240.00682
253.31078
506.79841
522.71598
690.24108
233.55487
250.27802
504.79735
521.82455
753.49261
720.50687
234.73078
254.25942
505.74045
523.80844
705.67709
243.43708
265.25327
657.57803
509.62747
528.66963
259.59898
683.31507
598.47227
620.52658
659.97848
667.83563
614.84274
638.2427
636.25647
651.18625
635.03247
667.31393
632.50389
283.3424
669.39369
612.86956
283.04319
584.32187
308.38744
664.73237
569.31681
590.0314
671.45686
700.67746
569.6446
584.86142
716.10451
709.96702
564.54006
580.10926
680.2438
755.1432
561.94798
578.46154
313.09297
718.57311
339.81204
561.63165
579.04374
516.32213
348.61386
376.94883
489.84402
563.60843
581.85827
388.44476
419.41946
432.55006
779.88525
567.90788
586.97395
427.69417
457.17221
791.27121
403.11177
574.89539
594.92515
470.91839
508.77862
333.60182
585.02007
606.06588
693.46258
527.68136
696.2898
299.01377
297.8241
652.36426
567.718
701.56604
635.11198
657.75484
700.95808
732.21764
637.74269
648.35588
732.03233
288.32139
618.67259
633.50228
306.01152
291.74654
616.7337
633.18436
311.67705
301.32013
616.96484
634.07722
323.17561
317.1402
746.31869
618.45944
636.18042
340.62479
618.33028
770.56522
339.01038
621.4045
639.75433
364.20483
748.98617
578.80982
580.83894
626.11733
645.2149
714.41024
713.17318
367.14107
394.11008
633.03273
652.83502
688.77573
551.78015
401.34985
642.48467
662.93005
430.72058
499.25127
654.71485
675.68292
441.72403
684.68783
670.57459
692.20904
707.49298
473.88096
770.71189
471.85682
486.30996
678.0339
519.41321
761.4542
669.82147
686.35294
750.67921
411.44923
671.00863
688.01386
533.91567
789.18347
672.84728
690.47621
382.43924
785.4942
565.40067
675.6153
693.77177
322.84441
584.96343
620.8574
302.57993
679.41729
698.13429
314.48778
639.53969
674.03825
291.52957
684.54023
703.69462
306.36917
1137.41853
359.56938
381.29289
691.21577
710.99695
771.46658
808.00479
375.02001
699.98323
720.52734
398.25128
810.33166
711.14998
732.53358
395.89625
420.63449
724.90736
746.64929
422.55926
714.69699
731.57725
751.89644
699.30597
722.91421
743.34726
774.89388
719.28179
737.32184
810.12278
835.11875
724.66635
742.88836
827.81348
449.04189
729.10833
747.40915
455.71086
484.74655
815.88176
733.2735
751.76329
497.05151
533.82427
811.14191
482.04045
737.82362
756.49603
548.39732
455.81852
570.90269
396.3307
742.99655
762.09991
587.86048
739.94879
371.91677
381.12277
749.56511
769.30893
726.58691
744.56889
644.16
757.83907
778.25649
727.35276
751.55386
768.00332
789.11487
702.34117
348.67376
779.40472
801.46879
361.66028
756.20876
792.48558
822.38124
767.11549
694.17009
818.53541
343.26025
359.58964
734.38303
343.67817
800.78724
722.05937
740.31772
794.67729
821.2048
786.01208
804.46529
362.22618
725.57824
349.24031
790.88742
809.41872
369.40627
734.05322
767.28632
847.4084
795.6509
814.38568
453.11053
476.99374
817.78585
648.01386
801.0775
820.24754
844.21381
478.14276
502.98802
564.78098
807.57181
826.9653
509.57154
535.17715
543.15314
815.24458
834.96001
550.86586
552.29045
824.42798
844.4363
600.90714
768.89136
835.81925
856.42249
779.62006
520.43823
855.25397
510.76983
583.51076
793.18143
472.11323
847.6435
783.35285
597.33501
839.20372
866.22386
450.24346
773.49884
857.10506
627.8452
772.58145
791.86942
410.94212
681.00464
780.74464
799.19742
398.79951
414.49868
853.48908
872.6019
753.9898
785.32808
397.09328
849.18785
859.23926
878.42086
779.0643
414.34448
821.81302
732.06577
865.29293
884.79056
399.88106
418.88368
406.88709
872.34115
892.38753
427.28776
795.5218
880.91498
901.74337
814.86218
834.16782
891.20984
911.45486
817.15084
842.6727
891.72515
907.85151
836.1248
417.91444
891.81495
917.49856
439.58195
812.97221
906.05611
433.2226
808.80357
836.1689
456.06194
884.36472
826.58903
846.66244
875.86019
651.45693
834.63387
853.66773
845.65634
858.76539
841.49193
860.40766
561.19095
854.25984
589.17472
847.68091
866.63925
587.15979
613.04317
536.91745
616.00226
923.85718
943.2642
780.13342
803.85488
519.71708
930.29298
950.1609
825.10931
631.92111
938.01641
958.68209
474.28083
1332.91686
946.21628
967.75413
879.55148
649.90081
953.75546
975.57464
683.06328
865.25641
962.56887
457.98537
859.28512
890.91663
473.24862
931.84615
880.87411
898.21457
922.49661
708.73774
878.29221
898.16902
709.02895
906.62294
888.23944
908.30267
900.41254
447.66645
897.42805
917.20842
464.28161
745.44465
450.26229
905.27866
924.80001
468.71351
456.06155
475.66908
847.91723
912.06484
931.33458
464.72728
485.43633
885.59775
731.76133
918.01236
937.24897
476.48654
798.50227
498.02776
725.05558
993.66405
1013.8947
873.60873
689.98299
1003.58022
1031.34603
491.52997
908.67326
1022.49114
513.95569
907.23031
939.08889
685.38015
985.19155
936.45956
510.1387
972.48525
533.57322
533.05276
930.62815
558.28116
953.39778
931.66176
951.85943
948.33853
1350.19126
944.09067
964.0102
652.17186
544.01179
954.53139
974.13153
661.11084
699.07676
884.01092
963.24787
982.40608
528.75156
815.08568
882.9022
708.08079
970.33261
989.11145
818.7533
505.62862
745.40492
499.52236
976.34153
994.85674
517.9308
834.24488
775.24144
505.07275
981.62423
1000.11041
866.64727
839.05659
524.18059
987.09359
1005.95105
865.39867
899.8762
945.52869
1046.51704
976.3421
1172.81514
1029.9546
512.74483
532.85471
970.58234
745.02089
993.50875
968.58466
992.25499
985.94293
1019.24405
981.60619
1003.02027
987.65963
522.79079
997.47949
1018.01901
543.61439
933.45424
1009.98145
1029.98113
535.05707
926.71563
556.44974
1019.84536
1039.50218
549.69318
571.64604
567.10869
590.08358
1027.71825
1047.12363
615.46213
588.62907
613.57691
605.8938
1033.79367
1052.61379
616.21395
646.93697
586.03626
651.27394
1038.60766
1057.19865
980.49662
895.99414
578.35709
1043.30453
1061.85226
935.8506
743.1796
1049.45447
1068.50513
549.45269
569.42589
1063.61885
1338.13476
773.60286
943.52153
1032.514
1047.76773
549.77859
1025.20302
1023.43098
569.2301
1033.34637
1055.79875
804.33098
982.96889
1052.73062
1074.65731
952.36845
559.05533
1067.23626
1088.74396
837.25711
579.25732
946.59573
1078.75205
1099.49596
840.60407
811.8741
915.80715
791.82081
1087.59638
1107.24465
569.39957
589.99877
804.6893
783.25624
1093.96368
1113.30519
580.81021
601.7689
793.67266
844.97824
1098.62166
1117.48427
593.49885
614.76215
816.16348
1102.24848
1120.55674
756.57948
607.81205
1105.48634
1122.40369
629.44011
940.85136
1097.59379
1113.89475
974.69114
753.92032
1097.15712
624.42727
646.07365
1008.86851
644.32326
1050.2799
1011.52669
665.69533
630.88389
672.60309
1108.86311
1131.65678
1202.88545
621.48031
1125.4176
1146.40593
1333.5056
679.88632
603.78514
1137.72737
1157.54726
684.58863
726.10401
591.88377
734.241
1146.05288
1165.37355
560.14817
860.1925
681.07718
702.67791
1153.07187
1170.61625
865.83883
684.86277
697.19218
718.21112
1156.77656
1173.1814
676.51768
704.79688
722.14163
1158.20847
1173.26582
651.91154
974.42403
1156.66692
1170.28785
978.55113
1005.95431
1156.58495
1352.53366
1005.04367
1037.61732
991.27676
1118.23424
1043.7823
715.16023
1095.49735
1112.72593
742.10742
1046.94338
1086.25066
1098.60231
1053.19152
1086.32163
1066.08496
643.48977
1087.28378
1112.61741
751.35883
931.59706
622.0788
1192.68564
1212.52594
772.75263
612.36544
775.46913
809.02875
1202.12476
1221.28651
603.17042
808.20714
602.38784
622.82808
1207.9186
1225.99696
614.14742
897.12988
634.74237
848.35664
1210.18253
1226.93425
929.66001
626.14443
647.20149
1209.13059
1224.08839
843.81236
638.79202
1204.54495
1215.80836
660.00963
1023.7814
1185.15198
1190.71491
1064.6891
651.96681
1164.33688
1178.27494
673.49363
1080.10725
1155.20926
1167.38245
1086.53751
1125.25259
1141.76306
666.26462
1126.53128
1149.6385
687.66698
1080.55074
1141.38923
1164.54894
1058.57202
760.82681
1162.60113
1184.01897
781.86522
1009.3111
1179.61248
1200.05314
891.14285
776.08944
880.46246
801.03402
1269.32658
1289.42876
673.87829
790.38679
814.98131
667.15492
1270.06169
1288.17456
810.989
847.73332
648.80097
1265.12019
1280.80306
846.25309
643.07901
1252.75066
1265.41405
666.79866
838.62368
1234.11896
1247.03769
652.73216
1098.55326
1221.86915
1236.2397
1112.71064
1149.29695
1210.47351
674.52389
1160.62013
835.49195
668.07097
1153.1911
689.8853
1180.1531
1127.97521
682.71484
1190.7046
1212.77968
704.42267
1087.20274
1214.07373
1237.52284
1074.89968
696.74227
1234.51008
1258.68912
718.27193
831.68763
710.39791
1251.24763
1274.78451
731.61968
877.67481
839.7904
921.19437
1263.03127
1285.00898
954.97167
986.92137
723.52629
1322.23539
1334.21831
1002.65445
1040.76271
1309.73026
1322.31695
1043.72662
744.3215
1296.26206
1314.82684
737.23704
1120.90155
1292.03237
758.59853
1173.35548
750.67636
771.15221
1221.0038
853.36777
1197.29578
1194.51509
889.76647
1206.6413
1236.00954
701.71642
1146.31113
1238.15549
1266.58407
1129.89411
890.24871
1270.67847
1297.45526
697.13689
1039.6671
1296.60561
1319.87278
879.82392
996.21535
701.45367
1314.60692
1334.57253
875.26941
905.81185
705.54699
728.0503
1325.52602
1342.83279
896.55549
862.53898
723.46881
745.88615
1330.19883
1345.302
865.22324
933.45449
739.88304
761.89329
1329.13602
1342.41328
775.94329
1101.22536
1350.18996
1335.63381
1156.24479
754.74995
1033.86191
1304.5965
776.25432
1207.96837
1271.35005
765.69512
1225.67559
768.10937
789.11907
1203.44945
780.16666
1270.7456
1182.46491
1203.56222
1293.18013
1318.91933
1155.99355
802.28118
1326.86582
1347.9993
721.07191
793.9715
1349.41417
1368.4292
814.69578
719.54262
806.06666
1365.2727
1383.8344
826.87911
699.54077
818.22327
950.99326
1375.67231
1392.63429
840.06905
686.01825
909.09914
900.05321
1378.68014
1393.62551
833.38884
857.75102
868.31238
921.14691
1375.98154
1388.12694
736.89518
764.55943
943.88075
1368.27833
1378.06299
756.47221
781.27008
1358.00831
1366.41307
1173.62623
1206.7515
1348.26523
961.19938
1227.87534
924.31377
778.51254
1277.30294
801.80439
1267.06543
1243.94489
1241.76198
1288.45502
1325.23211
1193.50199
906.61857
1339.21747
1362.28456
796.79546
1144.40877
1369.61733
1391.95038
1031.28089
819.06499
1395.7172
1422.39902
897.42256
812.41537
986.38209
1420.51465
1449.40241
833.93897
857.74764
941.70588
912.56217
1438.27244
1463.95783
826.05098
934.77207
847.44076
882.52879
1442.23726
1464.46001
952.65546
920.31764
838.98492
860.21126
1434.77196
1452.78522
885.64276
851.08917
872.00742
1418.97399
1431.54289
760.10135
1061.61375
1399.96791
1405.85982
1124.439
1156.55612
1372.03495
1373.37564
1291.90846
1331.80582
1274.90113
862.84925
1347.75594
1370.49793
883.79682
767.89799
1378.7025
1404.46935
875.43758
896.83178
1417.15322
1451.73598
716.6804
891.31284
1461.85842
1492.77724
914.34111
713.25628
746.46689
1493.56941
1513.98679
918.7129
744.17958
926.56543
737.63735
1507.94185
1522.31535
834.83056
858.06023
924.94345
853.73382
1510.83378
1521.86791
876.39567
988.46569
954.16612
870.07541
1503.97344
1512.8849
1004.71857
1040.48422
892.29395
1485.57119
1492.64016
1103.47207
884.61258
1450.14642
1454.6966
906.41202
1071.44913
1412.67004
1312.0327
1215.33077
897.79533
1089.34103
1349.74479
918.96726
1267.50229
1318.9393
1314.76984
1422.05485
1454.98745
1169.5467
1155.95002
1480.61675
1507.61532
1057.44093
1045.26404
1517.59183
1533.90104
786.87055
1011.58863
999.53952
1536.08373
1549.06257
909.65752
930.77007
966.79849
790.0871
1545.06583
1556.72678
921.28325
942.43904
933.5047
955.12275
1546.27606
1554.139
751.45984
1015.92376
947.74459
969.98608
1539.15832
1543.02972
1081.78694
1050.27652
784.26033
1524.81353
1525.82105
1115.13968
1149.85602
1498.43888
1493.48731
1182.83109
955.89745
1433.40014
1419.93617
981.22396
1246.35627
1378.67733
1373.08016
1280.84425
1316.99411
1344.77967
780.25369
1344.99002
973.73768
780.73212
1263.12356
952.38329
1392.80724
1219.20169
1206.34165
1546.77876
1563.86238
800.63106
971.13843
810.79527
1571.65601
1610.94642
835.46789
979.21352
928.6122
951.6044
1600.79262
1649.82713
951.06613
943.72176
919.92358
965.23053
1599.20878
1624.3502
789.96506
956.42695
977.55622
817.82393
1568.65058
1570.06439
968.29919
1084.17828
988.85036
1544.47161
1541.66099
1147.83163
979.27759
1516.87891
1510.01152
999.54647
816.66072
1461.98864
1451.08914
990.32465
1247.67126
1402.66531
1010.36499
1319.13046
821.71163
1001.47259
1333.66799
1020.71455
1375.21264
1292.33082
1273.80801
1399.76284
1436.01611
1229.66171
817.34946
1470.14267
1501.69602
1017.10298
818.5304
1520.46799
1536.63272
1004.72802
820.67225
1701.22029
1708.13166
994.43293
1022.3697
827.01837
895.81488
1695.48226
1697.59097
862.30471
1011.11427
863.34901
864.5804
1635.99974
1616.2188
891.24228
986.77736
889.64329
1558.01597
1549.95116
914.3869
988.85054
1527.00426
1517.22345
963.62149
1211.25224
1482.217
1459.96219
1281.35466
910.76364
1406.75284
1385.48997
934.26557
1346.51338
1352.5411
1333.50853
1376.76193
819.43745
1295.58398
1014.9297
1036.07117
1460.68156
1025.98957
1212.03508
1504.379
1521.31156
1175.8379
1156.50295
1541.04547
1555.19421
1069.29831
1046.77531
1579.4411
1632.22571
829.34727
1036.14396
1057.06733
1675.31706
1699.82188
841.93228
1046.0308
1066.93447
851.16537
1674.28194
1633.6105
1055.13548
1074.9552
849.43169
1562.72427
1549.95363
1052.26341
1176.16308
1526.76914
1514.79923
1209.2459
1236.70018
1475.96058
1444.19575
1277.26865
1305.73962
1397.55471
1376.42156
1339.36973
1069.25472
1346.22134
855.85593
1052.29202
1404.31289
1081.46986
1272.50149
1446.64125
1480.13673
1229.98166
859.47643
1517.91981
1532.27713
899.62467
1068.05867
1553.94341
1572.28603
900.39896
1057.69651
1645.62642
1686.61855
870.30695
1026.944
926.0149
1707.94954
1713.74366
896.94672
929.97313
1037.29399
970.75846