# vtk DataFile Version 3.0
Mesh2HRTF Files
ASCII
DATASET POLYDATA
POINTS 1208 float
 0.0021  0.0865 -0.0122
 0.0015  0.0873 -0.0034
 0.0097  0.0868 -0.0039
 0.0103  0.0859 -0.0125
 0.0067  0.0173 -0.0854
-0.0024  0.0177  0.0856
-0.0082  0.0870  0.0048
-0.0025  0.0361  0.0796
 0.0005  0.0044 -0.0874
 0.0077  0.0261 -0.0831
-0.0105  0.0129  0.0858
 0.0016  0.0848 -0.0212
 0.0105  0.0842 -0.0209
-0.0095  0.0860  0.0129
-0.0005  0.0444  0.0754
 0.0033  0.0821 -0.0298
 0.0117  0.0818 -0.0283
 0.0070  0.0354 -0.0796
 0.0005  0.0518  0.0705
-0.0461  0.0047 -0.0741
 0.0081  0.0786 -0.0374
-0.0105  0.0842  0.0212
 0.0024  0.0586  0.0649
-0.0000  0.0747 -0.0454
 0.0103  0.0737 -0.0458
-0.0047  0.0642  0.0592
 0.0055  0.0644  0.0589
 0.0030  0.0697 -0.0527
 0.0124  0.0682 -0.0533
-0.0018  0.0703  0.0519
 0.0043  0.0450 -0.0749
 0.0047  0.0632 -0.0601
-0.0111  0.0815  0.0295
-0.0045  0.0755  0.0438
 0.0040  0.0749  0.0450
 0.0058  0.0549 -0.0677
-0.0113  0.0781  0.0377
-0.0026  0.0791  0.0371
 0.0068  0.0791  0.0365
-0.0040  0.0587 -0.0648
 0.0149  0.0486 -0.0711
-0.0031  0.0824  0.0289
 0.0040  0.0828  0.0273
-0.0120  0.0736  0.0456
-0.0031  0.0651 -0.0583
-0.0024  0.0849  0.0207
 0.0057  0.0848  0.0203
-0.0129  0.0683  0.0530
-0.0023 -0.0018  0.0873
-0.0068  0.0697 -0.0524
-0.0068  0.0576  0.0655
-0.0035  0.0788 -0.0376
-0.0011  0.0865  0.0127
 0.0072  0.0862  0.0126
-0.0080  0.0503  0.0711
-0.0054  0.0823 -0.0290
-0.0088  0.0424  0.0760
-0.0074  0.0849 -0.0195
 0.0002  0.0874  0.0047
 0.0086  0.0870  0.0045
 0.0067  0.0089 -0.0868
-0.0116  0.0333  0.0800
-0.0107  0.0230  0.0836
-0.0048  0.0866 -0.0102
 0.0160  0.0557 -0.0655
-0.0066  0.0871 -0.0030
 0.0002 -0.0382 -0.0786
 0.0117  0.0815  0.0294
 0.0158  0.0399 -0.0761
 0.0140  0.0836  0.0213
-0.0187  0.0827  0.0214
 0.0161  0.0306 -0.0803
 0.0157  0.0850  0.0130
-0.0192  0.0799  0.0298
-0.0049  0.0509 -0.0709
 0.0170  0.0857  0.0044
-0.0194  0.0762  0.0381
-0.0203  0.0715  0.0460
 0.0179  0.0855 -0.0042
 0.0055  0.0308  0.0816
-0.0115  0.0628 -0.0597
 0.0185  0.0845 -0.0129
-0.0150  0.0621  0.0596
 0.0188  0.0826 -0.0215
-0.0107  0.0741 -0.0451
 0.0190  0.0797 -0.0303
-0.0162  0.0552  0.0658
 0.0186  0.0761 -0.0387
 0.0119  0.0578  0.0646
 0.0203  0.0713 -0.0463
-0.0147  0.0780 -0.0368
-0.0166  0.0480  0.0711
 0.0095  0.0694  0.0523
 0.0139  0.0620 -0.0600
 0.0131  0.0738  0.0451
-0.0135  0.0819 -0.0273
-0.0166  0.0409  0.0754
 0.0222  0.0818  0.0214
 0.0239  0.0831  0.0130
-0.0023  0.0079  0.0870
-0.0231 -0.0138 -0.0831
-0.0223  0.0357  0.0766
 0.0252  0.0837  0.0043
-0.0027  0.0273  0.0830
-0.0124  0.0856 -0.0122
 0.0261  0.0834 -0.0045
-0.0149  0.0860 -0.0040
-0.0017  0.0216 -0.0848
 0.0265  0.0822 -0.0133
 0.0052  0.0385  0.0783
 0.0267  0.0802 -0.0222
 0.0094  0.0449  0.0745
 0.0271  0.0771 -0.0308
 0.0084  0.0526  0.0693
 0.0284  0.0730 -0.0387
 0.0001  0.0296 -0.0823
-0.0183  0.0179  0.0835
 0.0158  0.0627  0.0588
 0.0219  0.0657 -0.0534
 0.0198  0.0672  0.0524
 0.0231  0.0594 -0.0599
 0.0098 -0.0370 -0.0786
 0.0236  0.0522 -0.0660
 0.0163  0.0774  0.0373
-0.0166  0.0858  0.0044
 0.0197  0.0798  0.0296
 0.0157  0.0210 -0.0834
-0.0179  0.0846  0.0129
 0.0333  0.0808  0.0042
 0.0341  0.0804 -0.0046
-0.0277  0.0740  0.0375
-0.0146  0.0545 -0.0667
-0.0283  0.0698  0.0443
 0.0345  0.0792 -0.0134
-0.0242  0.0655  0.0526
 0.0346  0.0771 -0.0222
-0.0165  0.0676 -0.0529
 0.0351  0.0739 -0.0306
 0.0162  0.0495  0.0703
 0.0198 -0.0348 -0.0777
 0.0209  0.0548  0.0648
 0.0301  0.0679 -0.0461
 0.0256  0.0596  0.0587
 0.0312  0.0621 -0.0531
-0.0250  0.0586  0.0599
-0.0211  0.0716 -0.0457
 0.0220  0.0718  0.0448
 0.0246 -0.0180 -0.0820
 0.0248  0.0752  0.0370
 0.0262  0.0434 -0.0713
 0.0278  0.0775  0.0293
-0.0245  0.0438  0.0715
 0.0302  0.0792  0.0212
-0.0215  0.0794 -0.0296
-0.0170  0.0833 -0.0203
 0.0320  0.0804  0.0128
 0.0060  0.0125  0.0864
-0.0206  0.0840 -0.0127
 0.0422  0.0754 -0.0130
 0.0424  0.0734 -0.0212
 0.0129  0.0355  0.0789
-0.0232  0.0842 -0.0044
 0.0425  0.0708 -0.0285
-0.0249  0.0837  0.0042
 0.0384  0.0689 -0.0378
 0.0295  0.0512  0.0645
 0.0394  0.0632 -0.0459
-0.0261  0.0825  0.0128
-0.0033  0.0363 -0.0795
 0.0303  0.0639  0.0514
 0.0316  0.0558 -0.0594
 0.0296  0.0700  0.0432
 0.0315  0.0495 -0.0649
 0.0327  0.0723  0.0365
-0.0069  0.0430 -0.0758
 0.0356  0.0744  0.0290
 0.0252  0.0341 -0.0765
 0.0379  0.0759  0.0210
-0.0269  0.0804  0.0214
-0.0273  0.0775  0.0297
 0.0398  0.0769  0.0126
-0.0206  0.0605 -0.0596
-0.0341  0.0602  0.0535
 0.0411  0.0771  0.0041
-0.0262  0.0643 -0.0531
-0.0252  0.0513  0.0661
 0.0419  0.0767 -0.0046
-0.0255  0.0745 -0.0379
 0.0482  0.0664 -0.0302
 0.0465  0.0631 -0.0386
 0.0244  0.0462  0.0701
-0.0468 -0.0737  0.0046
 0.0510  0.0130 -0.0697
 0.0349  0.0549  0.0584
 0.0400  0.0570 -0.0529
-0.0255  0.0808 -0.0215
 0.0393  0.0506 -0.0596
 0.0366  0.0656  0.0448
 0.0370  0.0437 -0.0661
 0.0401  0.0683  0.0370
-0.0288  0.0814 -0.0132
 0.0430  0.0704  0.0290
-0.0193  0.0275  0.0807
 0.0453  0.0718  0.0208
-0.0313  0.0815 -0.0047
 0.0241  0.0244 -0.0804
 0.0472  0.0726  0.0124
-0.0330  0.0809  0.0040
-0.0341  0.0795  0.0128
 0.0485  0.0727  0.0039
 0.0058  0.0220  0.0844
-0.0348  0.0773  0.0214
 0.0492  0.0722 -0.0047
 0.0135  0.0266  0.0822
-0.0151  0.0454 -0.0731
 0.0494  0.0709 -0.0132
-0.0351  0.0743  0.0298
 0.0492  0.0689 -0.0216
 0.0192  0.0407  0.0750
 0.0488  0.0565 -0.0455
 0.0478  0.0505 -0.0531
-0.0352  0.0705  0.0378
 0.0402  0.0579  0.0518
-0.0347  0.0657  0.0460
 0.0438  0.0613  0.0444
-0.0313  0.0674 -0.0459
 0.0471  0.0641  0.0363
 0.0358  0.0353 -0.0715
 0.0499  0.0658  0.0284
-0.0334  0.0460  0.0664
 0.0523  0.0670  0.0204
 0.0380  0.0198 -0.0763
-0.0316  0.0383  0.0719
 0.0541  0.0676  0.0120
-0.0300  0.0765 -0.0300
-0.0337  0.0777 -0.0217
 0.0554  0.0676  0.0035
-0.0289  0.0304  0.0766
 0.0150  0.0120 -0.0854
 0.0560  0.0670 -0.0050
-0.0368  0.0782 -0.0133
-0.0391  0.0780 -0.0047
 0.0561  0.0657 -0.0135
-0.0408  0.0773  0.0041
 0.0556  0.0638 -0.0218
 0.0288  0.0358  0.0744
 0.0547  0.0613 -0.0298
 0.0320  0.0431  0.0690
 0.0536  0.0582 -0.0371
 0.0378  0.0460  0.0640
 0.0460  0.0444 -0.0597
 0.0437  0.0386 -0.0652
 0.0502  0.0577  0.0423
 0.0534  0.0593  0.0355
-0.0088  0.0277 -0.0825
 0.0563  0.0607  0.0279
 0.0326  0.0269 -0.0765
 0.0588  0.0616  0.0199
-0.0418  0.0757  0.0128
-0.0424  0.0734  0.0215
 0.0606  0.0620  0.0117
-0.0425  0.0702  0.0299
-0.0237  0.0470 -0.0698
 0.0618  0.0619  0.0032
-0.0423  0.0662  0.0382
-0.0242  0.0539 -0.0644
 0.0622  0.0612 -0.0054
-0.0420  0.0612  0.0461
-0.0301  0.0569 -0.0592
 0.0621  0.0599 -0.0139
 0.0211  0.0313  0.0789
 0.0614  0.0580 -0.0224
-0.0343  0.0533  0.0601
 0.0602  0.0555 -0.0306
-0.0380  0.0730 -0.0295
 0.0582  0.0523 -0.0389
-0.0415  0.0739 -0.0214
 0.0561  0.0482 -0.0467
 0.0437  0.0488  0.0579
-0.0320  0.0175  0.0794
 0.0494  0.0513  0.0506
-0.0443  0.0741 -0.0131
-0.0262  0.0223  0.0803
 0.0622  0.0547  0.0277
 0.0646  0.0554  0.0197
-0.0466  0.0738 -0.0046
-0.0111  0.0182 -0.0848
 0.0664  0.0557  0.0113
-0.0482  0.0729  0.0041
 0.0235  0.0141 -0.0831
 0.0675  0.0555  0.0028
 0.0139  0.0170  0.0847
-0.0491  0.0712  0.0128
 0.0679  0.0548 -0.0058
-0.0148  0.0351 -0.0787
-0.0495  0.0687  0.0214
 0.0676  0.0535 -0.0144
 0.0287  0.0259  0.0785
 0.0667  0.0517 -0.0229
-0.0496  0.0655  0.0297
 0.0651  0.0492 -0.0313
 0.0378  0.0367  0.0698
 0.0633  0.0457 -0.0394
 0.0447  0.0393  0.0641
-0.0494  0.0616  0.0375
 0.0513  0.0413  0.0575
 0.0544  0.0425 -0.0536
-0.0492  0.0572  0.0443
 0.0516  0.0367 -0.0603
 0.0553  0.0518  0.0436
 0.0473  0.0310 -0.0667
 0.0591  0.0536  0.0355
 0.0061  0.0031  0.0872
-0.0440  0.0540  0.0528
 0.0312  0.0173 -0.0799
-0.0362  0.0596 -0.0527
 0.0716  0.0489  0.0110
 0.0727  0.0486  0.0024
-0.0426  0.0468  0.0602
-0.0345  0.0709 -0.0378
 0.0729  0.0479 -0.0062
 0.0210  0.0220  0.0820
-0.0515  0.0694 -0.0131
 0.0725  0.0466 -0.0148
-0.0405 -0.0416 -0.0653
 0.0714  0.0447 -0.0231
 0.0367  0.0277  0.0744
 0.0699  0.0424 -0.0309
-0.0536  0.0689 -0.0046
 0.0682  0.0394 -0.0379
 0.0510  0.0319  0.0635
 0.0629  0.0392 -0.0464
-0.0257  0.0130  0.0825
 0.0598  0.0338 -0.0541
 0.0578  0.0423  0.0502
-0.0551  0.0678  0.0041
 0.0606  0.0470  0.0419
-0.0185  0.0078  0.0851
 0.0643  0.0476  0.0351
 0.0419  0.0260 -0.0722
 0.0674  0.0483  0.0275
-0.0560  0.0659  0.0128
 0.0699  0.0488  0.0194
-0.0562  0.0634  0.0214
-0.0235  0.0387 -0.0748
-0.0561  0.0600  0.0297
 0.0069  0.0002 -0.0872
 0.0772  0.0404 -0.0067
 0.0767  0.0392 -0.0152
-0.0557  0.0559  0.0376
 0.0754  0.0374 -0.0235
-0.0318  0.0490 -0.0651
 0.0735  0.0352 -0.0316
 0.0440  0.0299  0.0694
 0.0707  0.0325 -0.0399
-0.0543  0.0509  0.0457
 0.0673  0.0292 -0.0476
 0.0575  0.0325  0.0573
-0.0387  0.0514 -0.0593
-0.0517  0.0458  0.0534
 0.0558  0.0283 -0.0610
 0.0644  0.0400  0.0436
 0.0511  0.0221 -0.0674
 0.0687  0.0406  0.0356
-0.0419  0.0621 -0.0451
 0.0720  0.0413  0.0274
 0.0448  0.0166 -0.0732
 0.0745  0.0416  0.0191
-0.0409  0.0394  0.0664
-0.0419  0.0677 -0.0361
 0.0762  0.0416  0.0106
-0.0383  0.0318  0.0718
-0.0454  0.0688 -0.0290
 0.0771  0.0413  0.0020
 0.0350  0.0184  0.0780
-0.0487  0.0694 -0.0213
 0.0786  0.0298 -0.0241
 0.0763  0.0276 -0.0324
 0.0495  0.0236  0.0681
 0.0735  0.0247 -0.0404
 0.0560  0.0232  0.0630
-0.0351  0.0244  0.0762
-0.0616  0.0620  0.0039
 0.0640  0.0243 -0.0544
 0.0638  0.0320  0.0506
 0.0599  0.0195 -0.0606
 0.0686  0.0329  0.0430
 0.0563  0.0144 -0.0653
 0.0727  0.0338  0.0348
-0.0622  0.0601  0.0126
 0.0759  0.0341  0.0268
-0.0251  0.0292 -0.0785
 0.0783  0.0342  0.0185
-0.0107  0.0026  0.0867
-0.0624  0.0574  0.0212
 0.0799  0.0340  0.0101
-0.0620  0.0539  0.0296
 0.0223  0.0028 -0.0845
 0.0808  0.0335  0.0015
-0.0319  0.0410 -0.0703
-0.0613  0.0494  0.0378
 0.0808  0.0327 -0.0071
-0.0605  0.0437  0.0454
-0.0454  0.0531 -0.0526
 0.0800  0.0314 -0.0157
-0.0499  0.0390  0.0602
-0.0481  0.0625 -0.0377
 0.0763  0.0172 -0.0391
 0.0711  0.0185 -0.0473
 0.0626  0.0226  0.0568
 0.0667  0.0142 -0.0548
 0.0688  0.0218  0.0493
-0.0438  0.0242  0.0716
[...]
CELL_DATA 2412

SCALARS phase_in_degree_unwrapped-source_1 float 1
LOOKUP_TABLE default
-89.12163
-88.71983
-74.3212
-73.45065
-88.22007
-88.26944
-87.85411
-88.59745
-66.07315
-87.20174
-86.76692
-71.21664
-72.18718
-85.96517
-53.44039
-89.21001
-78.19844
-67.63154
-84.15714
-79.35474
-79.97647
-83.1993
-82.50747
-81.08451
-89.50087
-81.43977
-80.71538
-66.81323
-83.26759
-79.42979
-67.89528
-84.27714
-84.66963
-72.02307
-69.93118
-85.65996
-86.07245
-89.55962
-86.97353
-87.31849
-68.77192
-69.86451
-68.67104
-88.00002
-88.23581
-67.6345
-89.1867
-88.82246
-70.89988
-88.86944
-88.9641
-72.04864
-67.60536
-66.46628
-88.26501
-89.4557
-89.19112
-87.85542
-73.144
-74.34656
-65.35068
-77.56896
-87.1795
-56.63941
-85.97457
-86.72627
-75.39962
-86.76006
-86.85568
-76.93395
-85.92152
-85.44624
-87.63182
-87.65533
-76.68065
-78.1032
-84.64729
-84.05374
-88.31495
-88.17544
-79.21739
-80.11172
-83.11749
-82.44079
-88.60466
-88.26895
-81.21957
-81.86975
-81.48627
-80.70387
-88.32322
-87.88042
-82.8286
-72.88559
-79.68504
-87.6346
-87.13124
-74.03296
-84.77566
-86.70333
-86.10732
-77.51364
-85.63047
-85.58449
-84.9448
-86.12574
-77.76782
-84.23316
-83.44089
-79.35052
-76.29338
-82.60316
-81.78987
-75.57558
-81.58912
-80.86435
-87.00714
-82.60221
-82.94863
-87.4552
-78.7976
-84.05729
-55.81184
-72.99687
-67.99516
-86.89846
-86.79567
-68.91324
-70.03967
-68.84888
-89.17289
-87.41401
-87.17063
-88.81272
-69.96904
-70.88082
-68.8439
-87.57234
-87.19236
-67.67925
-88.65687
-88.21361
-72.00276
-87.31681
-86.83857
-72.87951
-66.47196
-87.80573
-86.70317
-86.14754
-87.31538
-74.76223
-85.79046
-85.16101
-75.86626
-76.49335
-84.63149
-83.92439
-78.28815
-74.07539
-83.27314
-82.42688
-86.74267
-79.736
-81.67765
-86.21391
-80.79383
-81.07416
-85.50935
-80.0623
-82.12038
-66.26643
-79.11214
-78.23937
-56.3035
-84.29667
-77.23541
-76.18289
-85.2169
-85.28818
-75.21188
-74.00444
-86.13096
-86.13901
-84.9406
-78.14725
-84.11902
-86.40742
-85.98734
-70.86112
-83.4768
-79.19722
-80.14426
-86.15754
-85.65285
-82.53649
-72.85059
-81.76378
-85.5911
-85.0163
-73.99661
-81.22219
-84.72686
-84.07029
-80.85091
-55.88868
-83.56746
-82.71436
-77.443
-77.6395
-82.08931
-83.33127
-78.79911
-78.98555
-78.89879
-80.80797
-80.07774
-84.29724
-79.9856
-79.09644
-84.72189
-82.33521
-78.17412
-77.79394
-83.45629
-83.58626
-77.01699
-85.68042
-84.51279
-84.51794
-86.07023
-75.84453
-85.3283
-85.23267
-75.12611
-87.06751
-63.7308
-85.95052
-85.74828
-73.81361
-73.26814
-51.33257
-88.48459
-86.32894
-86.01328
-67.07169
-69.86511
-72.26811
-84.34304
-83.77241
-71.19591
-74.17951
-83.54674
-82.95236
-76.34098
-89.00541
-82.40833
-54.36901
-88.87535
-76.62119
-56.57818
-81.15918
-77.916
-87.03093
-80.48151
-79.47803
-86.48722
-80.2288
-78.78916
-74.73922
-81.3388
-81.56466
-86.03118
-77.34891
-82.78119
-82.82613
-76.21555
-85.45311
-83.64834
-83.54717
-75.94656
-84.84025
-84.32078
-84.13092
-84.24285
-83.47906
-71.73024
-84.81649
-84.53535
-82.8834
-81.9336
-70.72459
-81.50275
-85.09211
-84.71889
-79.97693
-82.61383
-82.85882
-78.99075
-85.11408
-84.65711
-78.06223
-70.80371
-83.91691
-56.24554
-84.86449
-84.34032
-71.87307
-77.08823
-81.62973
-80.95825
-76.75528
-76.15575
-80.60682
-79.49118
-57.56764
-77.95334
-78.90145
-85.77447
-79.02804
-75.21157
-73.97081
-77.80402
-86.45889
-81.0154
-77.11074
-76.07534
-81.79861
-81.64845
-75.4213
-74.30321
-82.52393
-82.3362
-73.55359
-87.25299
-83.11762
-82.85478
-74.21488
-87.86023
-87.73249
-83.52156
-83.17223
-88.22114
-87.95313
-88.22793
-87.81945
-83.71948
-83.29104
-87.79182
-87.30105
-76.07152
-76.76954
-83.69101
-83.19934
-83.97836
-83.28938
-77.0031
-82.72285
-83.44345
-82.88668
-81.94014
-79.41296
-81.35351
-82.97167
-82.36088
-80.52069
-80.65546
-82.30286
-81.64391
-80.8487
-75.38032
-79.78746
-77.80545
-78.70882
-78.91567
-77.24921
-76.18326
-79.78215
-79.55945
-75.57632
-81.88219
-80.56573
-80.40236
-77.87346
-84.02403
-81.29238
-81.04965
-75.95167
-72.26453
-81.79167
-81.46635
-84.86934
-71.40126
-51.08513
-82.1026
-81.70581
-72.95622
-50.63371
-86.34534
-86.96723
-82.23369
-81.77093
-86.73542
-68.61475
-87.20755
-86.85998
-82.1785
-81.65551
-69.69401
-69.95141
-87.13438
-86.68063
-81.93077
-81.3504
-67.6975
-86.72518
-86.19288
-81.49156
-80.86669
-72.25893
-73.03633
-80.88379
-80.23664
-74.223
-74.40988
-80.12311
-79.44891
-75.73785
-75.73921
-78.95799
-86.02665
-76.70198
-85.43634
-73.94838
-74.64111
-79.41182
-79.21661
-73.83303
-74.6849
-79.98029
-79.66438
-85.09515
-84.45743
-80.35438
-79.96988
-78.66818
-78.93125
-80.08027
-80.5806
-80.13663
-79.04677
-79.85431
-78.27935
-69.38679
-80.6575
-80.15826
-81.94166
-76.81604
-68.48212
-82.90304
-80.57756
-80.02184
-60.12732
-74.88697
-59.92495
-84.743
-80.32708
-79.72197
-85.48906
-71.89957
-85.29625
-79.91278
-79.26118
-73.07162
-62.3229
-79.34224
-78.63931
-85.90514
-67.68174
-78.61641
-77.83985
-74.46361
-85.59799
-77.90528
-77.0755
-71.98769
-76.53867
-76.92164
-75.75479
-77.47387
-77.22349
-75.40232
-86.04851
-78.21928
-78.1958
-71.52894
-85.63711
-78.78868
-78.35513
-85.91518
-85.415
-69.67717
-78.95229
-78.46769
-71.07944
-85.50566
-69.09847
-84.93322
-78.9875
-78.45392
-72.7486
-84.84133
-84.20969
-83.95303
-78.88681
-78.3023
-83.26601
-69.68131
-82.86372
-82.11564
-78.6349
-78.00856
-70.83695
-70.77741
-77.46168
-78.23845
-77.56677
-71.85924
-71.58522
-77.6879
-76.96394
-73.65445
-81.57053
-76.96609
-76.16557
-80.75863
-74.17785
-76.01381
-74.98497
-75.12935
-74.79108
-74.68903
-80.76715
-75.71168
-76.38234
-75.24344
-74.29586
-82.86604
-77.42426
-73.94447
-72.88428
-78.06619
-77.74
-72.75714
-71.86467
-78.49623
-78.12044
-66.46315
-66.3931
-74.48776
-67.64703
-77.23159
-76.66727
-67.41123
-83.79644
-66.9719
-83.65888
-77.11104
-76.50923
-72.5958
-84.41233
-84.14529
-66.47675
-76.86583
-76.22574
-69.77262
-69.70918
-84.71241
-76.48743
-75.81218
-70.15213
-84.33382
-75.96456
-75.26059
-70.71959
-71.00629
-75.25683
-74.5225
-84.76138
-72.83839
-74.18653
-84.29347
-73.34667
-69.009
-68.85923
-73.5789
-84.57443
-75.24372
-73.33992
-72.23176
-75.99604
-75.67016
-71.98885
-84.03001
-76.66528
-76.28618
-70.19355
-84.15408
-76.93836
-76.498
-83.5454
-70.35846
-77.13181
-76.65207
-65.39026
-70.04301
-83.50733
-77.23549
-76.71397
-82.84248
-74.42303
-82.64899
-81.93188
-75.03206
-74.37519
-75.38632
-81.5851
-80.83004
-74.66698
-73.97394
-77.03508
-80.31515
-74.17633
-73.44199
-79.5523
-71.91565
-73.55627
-72.78644
-72.46819
-77.88378
-73.09953
-72.35641
-78.75332
-72.84668
-72.41099
-71.29132
-73.59084
-79.84772
-71.17298
-77.14655
-82.75317
-74.69155
-82.56199
-70.88678
-75.07626
-74.59037
-70.69747
-71.55579
-75.23601
-74.75622
-83.20262
-82.85446
-75.38594
-74.87437
-69.31754
-83.3801
-82.94027
-75.44645
-74.89598
-67.15271
-68.2477
-83.34933
-82.83512
-75.40664
-74.81893
-68.80943
-83.11935
-82.5403
-70.45313
-75.27524
-74.65422
-82.68711
-69.62006
-72.34305
-71.60792
-70.42017
-70.13846
-71.78943
-71.00886
-71.17624
-70.67476
-71.10456
-70.05111
-71.30573
-82.04718
-69.97695
-71.96026
-82.05153
-72.90513
-81.35247
-70.13897
-73.39177
-72.67377
-69.92711
-68.94036
-73.35612
-72.85571
-68.41636
-68.61257
-73.53017
-73.01725
-69.62192
-67.12472
-73.61455
-73.06779
-81.21546
-68.32105
-80.45443
-73.61749
-73.04074
-75.08359
-80.18802
-79.3554
-75.92771
-73.54342
-72.93885
-78.99817
-78.0718
-77.72607
-66.31163
-73.39113
-72.75738
-77.82131
-76.93306
-65.9723
-78.63322
-73.14784
-72.48146
-76.49526
-75.29543
-80.66031
-72.8003
-72.1001
-69.267
-74.66943
-69.04759
-81.6326
-81.66034
-70.63442
-73.39346
-68.90348
-71.21634
-70.44809
-68.92576
-67.87626
-71.13562
-70.76465
-67.87845
-81.92534
-71.73876
-71.24361
-81.43626
-81.83141
-71.81039
-71.25781
-81.27744
-81.56426
-71.80181
-71.2244
-80.95185
-81.11783
-67.41442
-71.74589
-71.14698
-80.4483
-71.77335
-66.62284
-80.48554
-71.63902
-71.01864
-79.75625
-67.39003
-73.06797
-72.99914
-71.47168
-70.82702
-68.5482
-68.59096
-79.6593
-78.8599
-71.22866
-70.55902
-69.42347
-73.94198
-78.6298
-70.90081
-70.20877
-77.73915
-75.62325
-70.47984
-69.76938
-77.3884
-69.46246
-69.93506
-69.20017
-68.80802
-76.39699
-66.58547
-76.50526
-75.9937
-69.74378
-74.94639
-66.87473
-70.04321
-69.49397
-67.27756
-78.3838
-70.00644
-69.43257
-74.47084
-66.01116
-69.93644
-69.33905
-79.26202
-66.1291
-73.46187
-69.83562
-69.22124
-80.9264
-72.82292
-71.65346
-81.51783
-69.70196
-69.07045
-81.18966
-71.02655
-69.87676
-81.8314
-69.52264
-68.86908
-81.42367
-55.55411
-79.91578
-79.27468
-69.28138
-68.60738
-66.59513
-65.35693
-79.45575
-68.97334
-68.27825
-78.76363
-65.25988
-68.58527
-67.86542
-78.82626
-78.07917
-68.10896
-67.37865
-78.00852
-68.56367
-67.88827
-67.24309
-69.07622
-68.29681
-67.52026
-66.45257
-68.39468
-67.78529
-65.30092
-64.47844
-68.21052
-67.59554
-64.77875
-77.19492
-68.0559
-67.43787
-76.97189
-76.06316
-65.12657
-67.90872
-67.28227
-75.65545
-74.4935
-65.26924
-76.19088
-67.7491
-67.11036
-74.01152
-77.02297
-73.28589
-78.84332
-67.55396
-66.89266
-72.72471
-67.6759
-79.56702
-79.27515
-67.31629
-66.64333
-68.14974
-67.55741
-70.88199
-67.03852
-66.35443
-68.14541
-67.34683
-66.70215
-66.00272
-68.95876
-80.21378
-66.31771
-65.59159
-79.83778
-67.19202
-65.88403
-64.90472
-66.83459
-69.19225
-65.00957
-80.3828
-79.90942
-67.9222
-80.37491
-65.5533
-68.33692
-67.70093
-65.76784
-64.87708
-66.16075
-65.53757
-79.83858
-68.13977
-80.21876
-65.98291
-65.3531
-79.62829
-67.84891
-66.7537
-64.10043
-65.80172
-65.16434
-77.09107
-76.34109
-65.02502
-70.77532
-65.58105
-64.92436
-64.17842
-76.29392
-75.50061
-73.51845
-65.35062
-64.69849
-75.2733
-74.43988
-74.24286
-65.1174
-64.46638
-73.98352
-73.87416
-64.844
-64.16776
-72.3727
-66.75079
-64.47847
-63.77141
-66.41267
-74.96192
-63.79126
-75.26819
-72.88108
-65.96166
-76.51871
-64.02763
-66.29113
-72.42174
-64.30457
-63.41643
-77.21116
-66.58584
-63.71766
-71.43504
-66.62096
-65.97881
-78.35658
-69.66317
-66.34746
-65.72843
-78.74969
-78.28292
-63.88861
-63.26024
-67.21438
-66.17918
-78.81087
-64.02505
-63.68072
-63.05519
-66.40448
-78.29253
-64.9151
-67.92368
-63.4723
-62.84118
-78.73053
-78.15525
-78.51963
-63.24455
-62.5967
-77.8983
-65.87022
-62.96963
-62.29869
-65.24764
-64.58416
-62.63736
-61.98544
-65.15041
-64.30163
-62.63627
-62.12233
-64.51956
-78.18394
-62.62309
-61.79642
-77.52014
-65.29838
-62.15953
-77.71294
-65.43715
-64.48877
-77.00639
-62.83531
-64.83005
-64.15891
-63.11099
-70.65524
-64.55642
-63.92007
-64.11964
-63.69566
-64.3163
-63.68513
-73.59728
-63.85548
-72.68517
-64.09571
-63.46722
-72.75249
-71.91607
-74.44014
-71.80935
-61.6199
-61.00548
-66.36114
-65.58352
-75.00941
-61.40976
-60.78267
-64.89322
-71.28527
-61.16414
-60.51471
-76.4663
-51.05376
-60.90695
-60.23081
-63.08916
-70.69716
-60.67161
-59.983
-69.59226
-63.55973
-60.39694
-76.99692
-63.75263
-62.73098
-76.47938
-61.34247
-63.06739
-62.49634
-61.63428
-68.74541
-63.12622
-62.48505
-68.73834
-62.1232
-62.8021
-62.15937
-62.32559
-77.26943
-62.50107
-61.86962
-76.74895
-67.50501
-77.19408
-62.24225
-61.62051
-76.61816
-77.01813
-76.40376
-64.07966
-62.01796
-61.40335
-76.74907
-76.09974
-62.85576
-68.01455
-61.81603
-61.20505
-76.3812
-65.7406
-75.6975
-68.23083
-59.43336
-58.80759
-63.28686
-69.38033
-59.12054
-58.28669
-75.90062
-62.17719
-58.54977
-75.17579
-62.2149
-61.23303
-69.53426
-59.67489
-61.31082
-75.28935
-60.08191
-74.52695
-74.5304
-61.4687
-73.7046
-60.67681
-61.4437
-60.81952
-60.82238
-50.66106
-61.05182
-60.4255
-70.60233
-74.22839
-60.71375
-60.09471
-70.30325
-69.05464
-62.87703
-60.42914
-59.8227
-74.73082
-65.1792
-62.93409
-68.75195
-60.19433
-59.59967
-65.05703
-75.42203
-67.49389
-75.64612
-59.99789
-59.41183
-75.06601
-64.56637
-66.49681
-75.47883
-59.8201
-59.23736
-63.52706
-64.41119
-74.86992
-59.6418
-59.0528
-63.55733
-62.47301
-60.97871
-57.82602
-60.07107
-54.59863
-58.30809
-75.23596
-74.59116
-60.26878
-67.48961
-59.41021
-60.3341
-59.56985
-59.64809
-58.62956
-59.89559
-59.22223
-59.62117
-74.91544
-59.38802
-58.75372
-74.24305
-61.28017
-58.99141
-58.38325
-74.51749
-61.51355
-73.81877
-58.67919
-58.09156
-74.02535
-73.30333
-73.44267
-72.68591
-58.43468
-57.86521
-71.84184
-72.71816
-71.89607
-72.17132
-58.24455
-57.69052
-71.79818
-70.79663
-72.82258
-70.6427
-58.08832
-57.54729
-59.94764
-62.57571
-73.08918
-57.94542
-57.41089
-61.33099
-67.56836
-57.76289
-57.21634
-74.07921
-73.39388
-57.33569
-50.93285
-66.54098
-61.09271
-58.22102
-57.77264
-74.041
-58.56255
-58.50813
-73.40647
-58.31159
-57.67085
-65.4975
-59.77543
-57.74995
-57.14379
-60.69866
-73.74711
-57.33467
-56.74821
-64.41987
-73.08851
-60.89462
-57.00623
-56.44205
-64.31807
-65.25544
-61.88643
-65.95192
-56.75521
-56.21447
-73.41373
-72.73754
-65.51023
-66.23039
-56.57128
-56.05044
-73.03937
-72.34728
-65.86795
-64.18116
-56.43539
-55.93225
-72.61609
-71.9111
-65.19539
-56.32992
-55.84318
-67.18471
-72.12877
-56.23016
-55.77881
-71.42108
-61.17418
-56.42244
-55.98728
-60.12904
-67.27537
-56.46269
-71.57488
-70.85416
-59.07171
-70.89702
-57.70639
-58.98599
-70.17931
-71.35158
-69.93439
-56.24252
-55.63515
-53.72948
-71.67826
-55.78764
-55.21703
-51.03953
-69.6967
-72.26455
-55.43505
-54.90044
-69.50691
-68.18198
-72.65925
-67.89765
-55.17812
-54.67371
-73.71969
-63.72968
-69.70754
-68.96863
-55.00728
-54.52796
-63.56139
-69.55218
-69.13519
-68.42071
-54.90105
-54.44952
-69.84166
-68.88506
-68.30444
-54.85541
-54.43931
-70.65733
-60.15604
-54.89303
-54.51974
-60.02197
-59.15761
-54.88283
-50.59893
-59.17996
-58.20868
-59.63097
-55.89622
-58.02007
-68.53367
-56.49526
-56.0408
-67.63189
-57.94543
-56.7507
-56.43426
-57.76562
-56.82942
-57.31559
-70.94594
-56.81495
-56.15002
-67.34014
-61.41001
-71.67006
-53.97421
-53.46985
-66.60911
-71.99462
-66.48858
-65.31857
-53.71866
-53.24874
-72.27163
-65.34005
-72.32283
-71.65895
-53.56175
-53.12497
-71.94783
-62.53813
-71.26417
-64.01923
-53.4921
-53.08898
-61.53102
-71.54875
-70.84735
-53.50593
-53.14252
-64.18461
-71.12761
-53.61362
-53.33079
-70.41978
-58.6169
-54.1443
-53.9963
-57.43255
-70.6895
-54.69426
-54.31047
-69.98031
-57.01933
-54.93866
-54.5999
-56.83897
-55.82267
-55.3156
-70.23712
-55.79239
-55.17293
-69.52405
-56.93297
-55.39458
-54.7641
-57.54184
-66.99978
-54.80945
-54.22919
-66.30183
-58.95177
-54.33602
-53.79547
-62.70816
-66.50146
-63.02767
-65.67782
-52.24155
-51.85293
-69.93381
-66.05123
-65.26251
-70.16257
-52.21583
-51.86707
-65.35276
-64.08251
-70.80022
-52.30005
-51.9971
-64.11792
-71.00792
-52.53504
-52.27975
-70.17935
-64.33749
-52.92041
-52.63856
-70.66057
-56.53324
-53.20465
-52.87471
-56.14391
-55.1975
-53.47617
-69.9287
-54.88447
-64.44254
-70.15082
-54.99377
-69.42244
-54.35758
-55.6772
-69.66482
-54.06847
-53.51634
-68.9392
-56.76558
-53.46929
-52.93399
-57.09987
-69.19893
-52.98715
-52.48427
-68.47924
-64.5906
-68.75263
-52.62255
-52.15692
-68.04215
-63.12861
-64.30669
-61.75551
-52.3753
-51.94763
-60.73712
-59.76054
-68.34929
-51.21034
-50.95435
-59.25454
-58.1312
-51.45696
-51.20854
-58.04472
-67.61771
-51.71115
-51.35657
-67.81882
-55.93046
-51.79453
-67.0749
-54.53785
-67.33743
-66.63862
-53.21116
-63.90666
-53.9332
-53.87631
-62.74809
-53.68969
-52.9872
-69.02155
-55.19075
-52.93526
-52.35458
-55.64085
-62.71333
-52.26983
-51.75702
-69.17443
-58.06022
-51.76498
-51.29857
-63.01012
-59.36504
-69.02063
-51.39805
-50.97458
-63.15297
-62.18272
-68.89515
-68.15797
-51.16175
-50.78072
-62.47843
-63.53825
-68.30754
-67.56195
-51.05399
-50.71757
-63.46564
-61.42482
-67.76079
-67.02393
-51.0712
-50.77744
-66.53682
-56.46317
-50.60571
-50.98296
-55.00778
-67.26202
-58.31855
-51.54806
-66.53676
-53.64257
-52.17296
-66.88756
-53.21729
-66.80968
-66.0991
-53.64202
-66.42994
-52.28953
-54.19468
-53.64647
-51.85204
-51.34985
-54.93146
-65.66385
-51.17341
-50.71061
-68.35395
-65.88914
-50.66901
-50.24638
-65.19758
-68.39753
-65.45851
-50.30771
-49.93
-64.78961
-69.04864
-65.0886
-60.80159
-50.08487
-49.75352
-64.36556
-69.50929
-62.11919
-62.40624
-50.00038
-49.71647
-64.59338
-63.78451
-63.41219
-61.72794
-50.04819
-49.80694
-67.89558
-66.93931
-61.02856
-50.21231
-50.00435
-67.21268
-66.38748
-50.4493
-50.24717
-54.52933
-53.66486
-50.65161
-60.51374
-53.15686
-61.62548
-66.47834
-52.06125
-65.70297
-52.36404
-52.70409
-52.75633
-51.95435
-51.2244
-53.92054
-62.17954
-50.92415
-50.40877
-65.8657
-55.25705
-50.23186
-49.78972
-58.3058
-65.12441
-49.71867
-49.33487
-62.47143
-65.33555
-59.68588
-49.36126
-49.02958
-64.61682
-63.72158
-61.10378
-62.00245
-49.15153
-48.86945
-64.87109
-61.39171
-64.16012
-62.95475
-49.08492
-48.84993
-60.84374
-61.77091
-64.43215
-63.73264
-49.15199
-48.95981
-62.85322
-64.01823
-63.33322
-49.33119
-49.17957
-67.07387
-57.51878
-49.59411
-49.50322
-55.86053
-55.00032
-50.12968
-50.10638
-51.87808
-51.0959
-52.11402
-63.62414
-50.74633
-50.23331
-62.94599
-66.80727
-50.04933
-49.58493
-63.21756
-62.5275
-49.39733
-49.00644
-68.49249
-62.70291
-48.90194
-48.56638
-61.96432
-68.61545
-67.52209
-48.55745
-48.27389
-61.81114
-67.60553
-61.55982
-67.85784
-48.36307
-48.1309
-64.62251
-63.8615
-61.61556
-63.99279
-48.31543
-48.13357
-63.25395
-59.71111
-60.74644
-63.44743
-48.40718
-48.27403
-59.1952
-58.12317
-62.73127
-48.62877
-48.54542
-56.41372
-62.96975
-48.99265
-48.94946
-62.27317
-57.24993
-49.4267
-51.49598
-53.45034
-62.54089
-56.78803
-50.61462
-61.86319
-52.34595
-51.26844
-51.35629
-49.34231
-48.98105
-54.5717
-54.95231
-48.71141
-48.38028
-57.5555
-57.91766
-48.23044
-47.94708
-66.1787
-58.90948
-59.29086
-47.90109
-47.66902
-62.1499
-61.48084
-60.29625
-66.06517
-47.72556
-47.54631
-61.77195
-61.10509
-61.37901
-60.70006
-47.70205
-47.57517
-67.33146
-58.87139
-60.92538
-60.23216
-47.82388
-47.74978
-56.96199
-57.828
-66.26121
-48.08373
-48.06615
-56.08419
-55.17813
-48.47874
-48.54557
-54.29663
-60.67657
-49.18141
-49.34643
-59.91052
-52.76591
-49.98222
-50.10593
-52.08255
-51.38457
-50.72431
-66.41951
-50.79332
-60.13826
-66.40745
-52.351
-60.75541
-49.79184
-53.27903
-53.61066
-47.71487
-47.48193
-65.75914
-60.18401
-65.41572
-47.40114
-47.22163
-64.60698
-59.95682
-61.59817
-60.78113
-47.24683
-47.12202
-60.89281
-61.11588
-61.76127
-60.43738
-47.25072
-47.18108
-66.06715
-60.70173
-60.04252
-65.13734
-47.40906
-47.39666
-60.32226
-56.88628
-59.6741
-47.72221
-47.7718
-55.2201
-59.96541
-48.21541
-48.32311
-59.3272
-65.19125
-48.88969
-49.01052
-59.61418
-52.73901
-49.58391
-58.98988
-51.33184
-65.02379
-59.27033
-50.97373
-58.6758
-50.14181
-51.7962
-52.16405
-49.68017
-49.19657
-53.06144
-65.17262
-48.82934
-48.46483
-58.77478
-65.13107
-48.18654
-47.8997
-59.15691
-65.09279
-46.92828
-46.85948
-59.47596
-58.61309
-64.89471
-62.53843
-46.96168
-46.95018
-63.70563
-58.96173
-63.56904
-63.65088
-47.15705
-47.20488
-62.79552
-59.71848
-62.84533
-47.51385
-47.62227
-62.05807
-59.65384
-48.02775
-48.19646
-60.44779
-53.56551
-48.67175
-48.92579
-52.07106
-62.16729
-49.53787
-49.88157
-61.42667
-50.74068
-50.5499
-50.97816
-50.10231
-65.06883
-51.74758
-58.92059
-58.28276
-48.93543
-58.55476
-53.49296
-48.4355
-48.17301
-54.41378
-54.97236
-47.81492
-47.58574
-57.24982
-57.93234
-47.35479
-47.17457
-64.75302
-58.22854
-57.62184
-47.05897
-46.93324
-64.31983
-57.93275
-57.34273
-64.02292
-47.06418
-47.17104
-57.6711
-57.12202
-64.08934
-47.46031
-47.62946
-57.7743
-54.46415
-48.0206
-48.26306
-53.62478
-52.9828
-48.75906
-49.08798
-52.14882
-51.58365
-49.67566
-50.06724
-50.89337
-57.31898
-50.71438
-63.90704
-57.77543
-49.6176
-56.95574
-52.20205
-49.0924
-48.73596
-53.06589
-63.79053
-48.23397
-47.9721
-62.50915
-57.3223
-47.59401
-47.40177
-62.50164
-57.58329
-47.14837
-47.0197
-63.34578
-58.46679
-61.6778
-46.87491
-46.8046
-62.49847
-61.49932
-58.17178
-60.16437
-46.77026
-60.72266
-59.65049
-61.57472
-61.8959
-46.83389
-46.87992
-58.80295
-61.05832
-58.51083
-61.06682
-48.1698
-48.46909
-60.29557
-61.37759
-48.96913
-49.3795
-51.95948
-58.40332
-49.93505
-60.37437
-59.65405
-50.44322
-58.71784
-51.20327
-49.81652
-49.42777
-51.92706
-59.80052
-48.87286
-48.5704
-59.11649
-53.54102
-48.06655
-47.85216
-54.53186
-65.89807
-47.49531
-47.36703
-59.32069
-58.66508