# vtk DataFile Version 3.0
Mesh2HRTF Files
ASCII
DATASET POLYDATA
POINTS 1208 float
 0.0021  0.0865 -0.0122
 0.0015  0.0873 -0.0034
 0.0097  0.0868 -0.0039
 0.0103  0.0859 -0.0125
 0.0067  0.0173 -0.0854
-0.0024  0.0177  0.0856
-0.0082  0.0870  0.0048
-0.0025  0.0361  0.0796
 0.0005  0.0044 -0.0874
 0.0077  0.0261 -0.0831
-0.0105  0.0129  0.0858
 0.0016  0.0848 -0.0212
 0.0105  0.0842 -0.0209
-0.0095  0.0860  0.0129
-0.0005  0.0444  0.0754
 0.0033  0.0821 -0.0298
 0.0117  0.0818 -0.0283
 0.0070  0.0354 -0.0796
 0.0005  0.0518  0.0705
-0.0461  0.0047 -0.0741
 0.0081  0.0786 -0.0374
-0.0105  0.0842  0.0212
 0.0024  0.0586  0.0649
-0.0000  0.0747 -0.0454
 0.0103  0.0737 -0.0458
-0.0047  0.0642  0.0592
 0.0055  0.0644  0.0589
 0.0030  0.0697 -0.0527
 0.0124  0.0682 -0.0533
-0.0018  0.0703  0.0519
 0.0043  0.0450 -0.0749
 0.0047  0.0632 -0.0601
-0.0111  0.0815  0.0295
-0.0045  0.0755  0.0438
 0.0040  0.0749  0.0450
 0.0058  0.0549 -0.0677
-0.0113  0.0781  0.0377
-0.0026  0.0791  0.0371
 0.0068  0.0791  0.0365
-0.0040  0.0587 -0.0648
 0.0149  0.0486 -0.0711
-0.0031  0.0824  0.0289
 0.0040  0.0828  0.0273
-0.0120  0.0736  0.0456
-0.0031  0.0651 -0.0583
-0.0024  0.0849  0.0207
 0.0057  0.0848  0.0203
-0.0129  0.0683  0.0530
-0.0023 -0.0018  0.0873
-0.0068  0.0697 -0.0524
-0.0068  0.0576  0.0655
-0.0035  0.0788 -0.0376
-0.0011  0.0865  0.0127
 0.0072  0.0862  0.0126
-0.0080  0.0503  0.0711
-0.0054  0.0823 -0.0290
-0.0088  0.0424  0.0760
-0.0074  0.0849 -0.0195
 0.0002  0.0874  0.0047
 0.0086  0.0870  0.0045
 0.0067  0.0089 -0.0868
-0.0116  0.0333  0.0800
-0.0107  0.0230  0.0836
-0.0048  0.0866 -0.0102
 0.0160  0.0557 -0.0655
-0.0066  0.0871 -0.0030
 0.0002 -0.0382 -0.0786
 0.0117  0.0815  0.0294
 0.0158  0.0399 -0.0761
 0.0140  0.0836  0.0213
-0.0187  0.0827  0.0214
 0.0161  0.0306 -0.0803
 0.0157  0.0850  0.0130
-0.0192  0.0799  0.0298
-0.0049  0.0509 -0.0709
 0.0170  0.0857  0.0044
-0.0194  0.0762  0.0381
-0.0203  0.0715  0.0460
 0.0179  0.0855 -0.0042
 0.0055  0.0308  0.0816
-0.0115  0.0628 -0.0597
 0.0185  0.0845 -0.0129
-0.0150  0.0621  0.0596
 0.0188  0.0826 -0.0215
-0.0107  0.0741 -0.0451
 0.0190  0.0797 -0.0303
-0.0162  0.0552  0.0658
 0.0186  0.0761 -0.0387
 0.0119  0.0578  0.0646
 0.0203  0.0713 -0.0463
-0.0147  0.0780 -0.0368
-0.0166  0.0480  0.0711
 0.0095  0.0694  0.0523
 0.0139  0.0620 -0.0600
 0.0131  0.0738  0.0451
-0.0135  0.0819 -0.0273
-0.0166  0.0409  0.0754
 0.0222  0.0818  0.0214
 0.0239  0.0831  0.0130
-0.0023  0.0079  0.0870
-0.0231 -0.0138 -0.0831
-0.0223  0.0357  0.0766
 0.0252  0.0837  0.0043
-0.0027  0.0273  0.0830
-0.0124  0.0856 -0.0122
 0.0261  0.0834 -0.0045
-0.0149  0.0860 -0.0040
-0.0017  0.0216 -0.0848
 0.0265  0.0822 -0.0133
 0.0052  0.0385  0.0783
 0.0267  0.0802 -0.0222
 0.0094  0.0449  0.0745
 0.0271  0.0771 -0.0308
 0.0084  0.0526  0.0693
 0.0284  0.0730 -0.0387
 0.0001  0.0296 -0.0823
-0.0183  0.0179  0.0835
 0.0158  0.0627  0.0588
 0.0219  0.0657 -0.0534
 0.0198  0.0672  0.0524
 0.0231  0.0594 -0.0599
 0.0098 -0.0370 -0.0786
 0.0236  0.0522 -0.0660
 0.0163  0.0774  0.0373
-0.0166  0.0858  0.0044
 0.0197  0.0798  0.0296
 0.0157  0.0210 -0.0834
-0.0179  0.0846  0.0129
 0.0333  0.0808  0.0042
 0.0341  0.0804 -0.0046
-0.0277  0.0740  0.0375
-0.0146  0.0545 -0.0667
-0.0283  0.0698  0.0443
 0.0345  0.0792 -0.0134
-0.0242  0.0655  0.0526
 0.0346  0.0771 -0.0222
-0.0165  0.0676 -0.0529
 0.0351  0.0739 -0.0306
 0.0162  0.0495  0.0703
 0.0198 -0.0348 -0.0777
 0.0209  0.0548  0.0648
 0.0301  0.0679 -0.0461
 0.0256  0.0596  0.0587
 0.0312  0.0621 -0.0531
-0.0250  0.0586  0.0599
-0.0211  0.0716 -0.0457
 0.0220  0.0718  0.0448
 0.0246 -0.0180 -0.0820
 0.0248  0.0752  0.0370
 0.0262  0.0434 -0.0713
 0.0278  0.0775  0.0293
-0.0245  0.0438  0.0715
 0.0302  0.0792  0.0212
-0.0215  0.0794 -0.0296
-0.0170  0.0833 -0.0203
 0.0320  0.0804  0.0128
 0.0060  0.0125  0.0864
-0.0206  0.0840 -0.0127
 0.0422  0.0754 -0.0130
 0.0424  0.0734 -0.0212
 0.0129  0.0355  0.0789
-0.0232  0.0842 -0.0044
 0.0425  0.0708 -0.0285
-0.0249  0.0837  0.0042
 0.0384  0.0689 -0.0378
 0.0295  0.0512  0.0645
 0.0394  0.0632 -0.0459
-0.0261  0.0825  0.0128
-0.0033  0.0363 -0.0795
 0.0303  0.0639  0.0514
 0.0316  0.0558 -0.0594
 0.0296  0.0700  0.0432
 0.0315  0.0495 -0.0649
 0.0327  0.0723  0.0365
-0.0069  0.0430 -0.0758
 0.0356  0.0744  0.0290
 0.0252  0.0341 -0.0765
 0.0379  0.0759  0.0210
-0.0269  0.0804  0.0214
-0.0273  0.0775  0.0297
 0.0398  0.0769  0.0126
-0.0206  0.0605 -0.0596
-0.0341  0.0602  0.0535
 0.0411  0.0771  0.0041
-0.0262  0.0643 -0.0531
-0.0252  0.0513  0.0661
 0.0419  0.0767 -0.0046
-0.0255  0.0745 -0.0379
 0.0482  0.0664 -0.0302
 0.0465  0.0631 -0.0386
 0.0244  0.0462  0.0701
-0.0468 -0.0737  0.0046
 0.0510  0.0130 -0.0697
 0.0349  0.0549  0.0584
 0.0400  0.0570 -0.0529
-0.0255  0.0808 -0.0215
 0.0393  0.0506 -0.0596
 0.0366  0.0656  0.0448
 0.0370  0.0437 -0.0661
 0.0401  0.0683  0.0370
-0.0288  0.0814 -0.0132
 0.0430  0.0704  0.0290
-0.0193  0.0275  0.0807
 0.0453  0.0718  0.0208
-0.0313  0.0815 -0.0047
 0.0241  0.0244 -0.0804
 0.0472  0.0726  0.0124
-0.0330  0.0809  0.0040
-0.0341  0.0795  0.0128
 0.0485  0.0727  0.0039
 0.0058  0.0220  0.0844
-0.0348  0.0773  0.0214
 0.0492  0.0722 -0.0047
 0.0135  0.0266  0.0822
-0.0151  0.0454 -0.0731
 0.0494  0.0709 -0.0132
-0.0351  0.0743  0.0298
 0.0492  0.0689 -0.0216
 0.0192  0.0407  0.0750
 0.0488  0.0565 -0.0455
 0.0478  0.0505 -0.0531
-0.0352  0.0705  0.0378
 0.0402  0.0579  0.0518
-0.0347  0.0657  0.0460
 0.0438  0.0613  0.0444
-0.0313  0.0674 -0.0459
 0.0471  0.0641  0.0363
 0.0358  0.0353 -0.0715
 0.0499  0.0658  0.0284
-0.0334  0.0460  0.0664
 0.0523  0.0670  0.0204
 0.0380  0.0198 -0.0763
-0.0316  0.0383  0.0719
 0.0541  0.0676  0.0120
-0.0300  0.0765 -0.0300
-0.0337  0.0777 -0.0217
 0.0554  0.0676  0.0035
-0.0289  0.0304  0.0766
 0.0150  0.0120 -0.0854
 0.0560  0.0670 -0.0050
-0.0368  0.0782 -0.0133
-0.0391  0.0780 -0.0047
 0.0561  0.0657 -0.0135
-0.0408  0.0773  0.0041
 0.0556  0.0638 -0.0218
 0.0288  0.0358  0.0744
 0.0547  0.0613 -0.0298
 0.0320  0.0431  0.0690
 0.0536  0.0582 -0.0371
 0.0378  0.0460  0.0640
 0.0460  0.0444 -0.0597
 0.0437  0.0386 -0.0652
 0.0502  0.0577  0.0423
 0.0534  0.0593  0.0355
-0.0088  0.0277 -0.0825
 0.0563  0.0607  0.0279
 0.0326  0.0269 -0.0765
 0.0588  0.0616  0.0199
-0.0418  0.0757  0.0128
-0.0424  0.0734  0.0215
 0.0606  0.0620  0.0117
-0.0425  0.0702  0.0299
-0.0237  0.0470 -0.0698
 0.0618  0.0619  0.0032
-0.0423  0.0662  0.0382
-0.0242  0.0539 -0.0644
 0.0622  0.0612 -0.0054
-0.0420  0.0612  0.0461
-0.0301  0.0569 -0.0592
 0.0621  0.0599 -0.0139
 0.0211  0.0313  0.0789
 0.0614  0.0580 -0.0224
-0.0343  0.0533  0.0601
 0.0602  0.0555 -0.0306
-0.0380  0.0730 -0.0295
 0.0582  0.0523 -0.0389
-0.0415  0.0739 -0.0214
 0.0561  0.0482 -0.0467
 0.0437  0.0488  0.0579
-0.0320  0.0175  0.0794
 0.0494  0.0513  0.0506
-0.0443  0.0741 -0.0131
-0.0262  0.0223  0.0803
 0.0622  0.0547  0.0277
 0.0646  0.0554  0.0197
-0.0466  0.0738 -0.0046
-0.0111  0.0182 -0.0848
 0.0664  0.0557  0.0113
-0.0482  0.0729  0.0041
 0.0235  0.0141 -0.0831
 0.0675  0.0555  0.0028
 0.0139  0.0170  0.0847
-0.0491  0.0712  0.0128
 0.0679  0.0548 -0.0058
-0.0148  0.0351 -0.0787
-0.0495  0.0687  0.0214
 0.0676  0.0535 -0.0144
 0.0287  0.0259  0.0785
 0.0667  0.0517 -0.0229
-0.0496  0.0655  0.0297
 0.0651  0.0492 -0.0313
 0.0378  0.0367  0.0698
 0.0633  0.0457 -0.0394
 0.0447  0.0393  0.0641
-0.0494  0.0616  0.0375
 0.0513  0.0413  0.0575
 0.0544  0.0425 -0.0536
-0.0492  0.0572  0.0443
 0.0516  0.0367 -0.0603
 0.0553  0.0518  0.0436
 0.0473  0.0310 -0.0667
 0.0591  0.0536  0.0355
 0.0061  0.0031  0.0872
-0.0440  0.0540  0.0528
 0.0312  0.0173 -0.0799
-0.0362  0.0596 -0.0527
 0.0716  0.0489  0.0110
 0.0727  0.0486  0.0024
-0.0426  0.0468  0.0602
-0.0345  0.0709 -0.0378
 0.0729  0.0479 -0.0062
 0.0210  0.0220  0.0820
-0.0515  0.0694 -0.0131
 0.0725  0.0466 -0.0148
-0.0405 -0.0416 -0.0653
 0.0714  0.0447 -0.0231
 0.0367  0.0277  0.0744
 0.0699  0.0424 -0.0309
-0.0536  0.0689 -0.0046
 0.0682  0.0394 -0.0379
 0.0510  0.0319  0.0635
 0.0629  0.0392 -0.0464
-0.0257  0.0130  0.0825
 0.0598  0.0338 -0.0541
 0.0578  0.0423  0.0502
-0.0551  0.0678  0.0041
 0.0606  0.0470  0.0419
-0.0185  0.0078  0.0851
 0.0643  0.0476  0.0351
 0.0419  0.0260 -0.0722
 0.0674  0.0483  0.0275
-0.0560  0.0659  0.0128
 0.0699  0.0488  0.0194
-0.0562  0.0634  0.0214
-0.0235  0.0387 -0.0748
-0.0561  0.0600  0.0297
 0.0069  0.0002 -0.0872
 0.0772  0.0404 -0.0067
 0.0767  0.0392 -0.0152
-0.0557  0.0559  0.0376
 0.0754  0.0374 -0.0235
-0.0318  0.0490 -0.0651
 0.0735  0.0352 -0.0316
 0.0440  0.0299  0.0694
 0.0707  0.0325 -0.0399
-0.0543  0.0509  0.0457
 0.0673  0.0292 -0.0476
 0.0575  0.0325  0.0573
-0.0387  0.0514 -0.0593
-0.0517  0.0458  0.0534
 0.0558  0.0283 -0.0610
 0.0644  0.0400  0.0436
 0.0511  0.0221 -0.0674
 0.0687  0.0406  0.0356
-0.0419  0.0621 -0.0451
 0.0720  0.0413  0.0274
 0.0448  0.0166 -0.0732
 0.0745  0.0416  0.0191
-0.0409  0.0394  0.0664
-0.0419  0.0677 -0.0361
 0.0762  0.0416  0.0106
-0.0383  0.0318  0.0718
-0.0454  0.0688 -0.0290
 0.0771  0.0413  0.0020
 0.0350  0.0184  0.0780
-0.0487  0.0694 -0.0213
 0.0786  0.0298 -0.0241
 0.0763  0.0276 -0.0324
 0.0495  0.0236  0.0681
 0.0735  0.0247 -0.0404
 0.0560  0.0232  0.0630
-0.0351  0.0244  0.0762
-0.0616  0.0620  0.0039
 0.0640  0.0243 -0.0544
 0.0638  0.0320  0.0506
 0.0599  0.0195 -0.0606
 0.0686  0.0329  0.0430
 0.0563  0.0144 -0.0653
 0.0727  0.0338  0.0348
-0.0622  0.0601  0.0126
 0.0759  0.0341  0.0268
-0.0251  0.0292 -0.0785
 0.0783  0.0342  0.0185
-0.0107  0.0026  0.0867
-0.0624  0.0574  0.0212
 0.0799  0.0340  0.0101
-0.0620  0.0539  0.0296
 0.0223  0.0028 -0.0845
 0.0808  0.0335  0.0015
-0.0319  0.0410 -0.0703
-0.0613  0.0494  0.0378
 0.0808  0.0327 -0.0071
-0.0605  0.0437  0.0454
-0.0454  0.0531 -0.0526
 0.0800  0.0314 -0.0157
-0.0499  0.0390  0.0602
-0.0481  0.0625 -0.0377
 0.0763  0.0172 -0.0391
 0.0711  0.0185 -0.0473
 0.0626  0.0226  0.0568
 0.0667  0.0142 -0.0548
 0.0688  0.0218  0.0493
-0.0438  0.0242  0.0716
[...]
CELL_DATA 2412

SCALARS pressure-source_1 float 1
LOOKUP_TABLE default
2.24856
1.59715
0.09723
0.08984
1.19467
1.18847
0.981
1.47273
0.04523
0.75353
0.65224
0.07371
0.07888
0.51426
0.01541
2.61582
0.14857
0.05203
0.35363
0.17257
0.18479
0.29602
0.26583
0.21719
4.28335
0.22459
0.20291
0.04839
0.29789
0.17193
0.05377
0.36094
0.38798
0.07866
0.06449
0.48963
0.53405
5.23242
0.69921
0.77952
0.05777
0.06336
0.05776
1.06758
1.18604
0.05287
2.57703
1.8133
0.07041
1.85054
2.00153
0.07855
0.05313
0.04813
1.21449
3.81012
2.53678
0.99917
0.08694
0.09857
0.04354
0.13537
0.74683
0.02003
0.52503
0.65094
0.10771
0.65481
0.67354
0.12945
0.50939
0.46551
0.89068
0.89977
0.12567
0.14457
0.38394
0.34597
1.23564
1.15364
0.16862
0.18299
0.28897
0.26247
1.46971
1.20642
0.21914
0.23827
0.22717
0.20387
1.22158
0.98368
0.28171
0.08439
0.17822
0.8771
0.73335
0.09556
0.39473
0.6312
0.53551
0.13893
0.47522
0.46427
0.41044
0.5318
0.14193
0.35595
0.30806
0.17278
0.11964
0.2682
0.23692
0.11265
0.23073
0.20664
0.71334
0.26806
0.28047
0.82958
0.16019
0.35139
0.01866
0.0855
0.05471
0.68087
0.66116
0.05848
0.06569
0.0587
2.51299
0.80835
0.75001
1.79645
0.06399
0.06896
0.05907
0.85381
0.74916
0.05302
1.57272
1.20049
0.07853
0.77293
0.66281
0.08499
0.04789
0.96895
0.63048
0.54181
0.79976
0.10228
0.49121
0.4285
0.11673
0.1226
0.37919
0.33545
0.14955
0.09775
0.29721
0.25925
0.64854
0.17986
0.23187
0.56226
0.20705
0.21414
0.46423
0.18722
0.24835
0.04674
0.16409
0.14898
0.01947
0.36329
0.12912
0.11687
0.43459
0.44226
0.10582
0.09357
0.54876
0.54726
0.41588
0.14674
0.34853
0.57721
0.52198
0.07009
0.31378
0.16682
0.18488
0.53801
0.47883
0.26172
0.08447
0.23544
0.46728
0.4145
0.0963
0.21943
0.38759
0.34375
0.20716
0.01875
0.30961
0.27099
0.13732
0.14047
0.2449
0.30251
0.16049
0.1645
0.16258
0.20537
0.18723
0.36199
0.18415
0.16486
0.39004
0.25333
0.14781
0.14215
0.31008
0.31721
0.13128
0.48842
0.37719
0.37797
0.53283
0.11467
0.45009
0.44045
0.10616
0.73014
0.0376
0.51788
0.49546
0.09247
0.08695
0.01325
1.39377
0.56874
0.52824
0.05024
0.0646
0.0803
0.35913
0.32648
0.07307
0.09792
0.31103
0.28125
0.12049
2.08728
0.256
0.01757
1.87296
0.12535
0.0197
0.21441
0.14533
0.7171
0.19475
0.17143
0.60847
0.19152
0.15843
0.10172
0.22334
0.2296
0.53125
0.13347
0.27233
0.27555
0.11693
0.46501
0.32061
0.31461
0.11503
0.4029
0.36258
0.35062
0.36077
0.31138
0.07616
0.39781
0.37891
0.28128
0.24063
0.06946
0.22795
0.41923
0.39258
0.18571
0.27121
0.28096
0.1633
0.41946
0.38695
0.14739
0.07
0.3383
0.01917
0.39765
0.36304
0.07768
0.13142
0.22597
0.20839
0.12754
0.11942
0.19698
0.17137
0.02223
0.14657
0.16061
0.49756
0.16477
0.10619
0.09426
0.14176
0.59634
0.2113
0.12987
0.11546
0.23659
0.23319
0.105
0.09631
0.26357
0.25877
0.09044
0.77364
0.29018
0.28067
0.09641
0.98867
0.93852
0.31011
0.29576
1.18806
1.04744
1.18985
0.98407
0.32027
0.30163
0.96272
0.79566
0.11708
0.12925
0.31857
0.29591
0.33974
0.30261
0.13054
0.27183
0.30413
0.28017
0.24207
0.17213
0.21808
0.28062
0.25639
0.19811
0.20206
0.25155
0.22854
0.20823
0.10783
0.18051
0.14135
0.15787
0.1647
0.1329
0.11773
0.17748
0.17204
0.11028
0.2417
0.19891
0.19596
0.14382
0.34547
0.22095
0.21516
0.11624
0.07954
0.23675
0.22772
0.40044
0.07426
0.01329
0.24658
0.23499
0.08581
0.01334
0.58318
0.69488
0.25055
0.23666
0.65356
0.05753
0.75721
0.68265
0.24775
0.23194
0.06339
0.06491
0.73911
0.64575
0.23825
0.22144
0.0529
0.64824
0.56092
0.2234
0.20674
0.08049
0.08702
0.20551
0.19018
0.09739
0.0989
0.18467
0.17103
0.11248
0.11338
0.16097
0.53177
0.12634
0.46313
0.09397
0.09918
0.1691
0.16645
0.09079
0.10126
0.18486
0.17836
0.42522
0.37526
0.19366
0.18563
0.15718
0.16209
0.1828
0.19839
0.18898
0.16456
0.18294
0.1504
0.06115
0.19946
0.1889
0.24474
0.12809
0.05592
0.28056
0.19667
0.18495
0.02744
0.10404
0.02678
0.39489
0.19004
0.17766
0.46657
0.07794
0.44992
0.1801
0.16732
0.08749
0.03363
0.16755
0.15469
0.51489
0.05339
0.15292
0.14053
0.09869
0.48247
0.14077
0.13152
0.07782
0.12517
0.12829
0.1126
0.13623
0.13466
0.1087
0.53355
0.14881
0.14888
0.07549
0.48707
0.15845
0.15231
0.51545
0.46197
0.06318
0.16095
0.15382
0.07088
0.46665
0.05981
0.41427
0.16095
0.15292
0.08434
0.40239
0.35709
0.33784
0.15834
0.14969
0.30088
0.06328
0.27964
0.25045
0.15361
0.14425
0.07099
0.07095
0.13598
0.1464
0.13664
0.07806
0.07703
0.13713
0.12734
0.09075
0.22892
0.12656
0.11698
0.20547
0.09681
0.11308
0.10434
0.10591
0.10447
0.10084
0.2055
0.11221
0.12193
0.10872
0.09673
0.27815
0.13389
0.09263
0.08295
0.1451
0.14165
0.08151
0.07742
0.15257
0.1482
0.04789
0.04774
0.10002
0.05112
0.13152
0.12519
0.05186
0.3255
0.04931
0.32159
0.12934
0.12261
0.08281
0.37061
0.35503
0.04621
0.12557
0.11848
0.0637
0.06369
0.39401
0.12029
0.11309
0.06652
0.36859
0.11377
0.10677
0.06978
0.07179
0.10602
0.09879
0.39693
0.08455
0.09485
0.36543
0.08912
0.05894
0.05867
0.09038
0.38129
0.11032
0.08756
0.07832
0.1158
0.11288
0.07634
0.3468
0.12361
0.11937
0.06572
0.35067
0.12831
0.12303
0.31676
0.06676
0.13088
0.1254
0.04376
0.06504
0.31141
0.132
0.12614
0.28082
0.09956
0.2703
0.2442
0.10331
0.09765
0.10736
0.23091
0.209
0.0992
0.09328
0.12988
0.19355
0.09416
0.08814
0.17459
0.07734
0.08862
0.08255
0.0829
0.14364
0.08518
0.08125
0.15704
0.08673
0.08022
0.07222
0.09089
0.18368
0.07133
0.13255
0.26988
0.10023
0.26575
0.07004
0.10473
0.1009
0.06862
0.07523
0.10626
0.10277
0.29701
0.2829
0.1081
0.10401
0.06109
0.30688
0.28751
0.1088
0.1042
0.04904
0.0536
0.30459
0.28223
0.1082
0.10325
0.0583
0.29193
0.26859
0.06745
0.10644
0.10103
0.27151
0.06437
0.07873
0.07412
0.06842
0.06702
0.07496
0.0702
0.07187
0.06991
0.06939
0.06506
0.0733
0.24821
0.06369
0.07934
0.24597
0.08777
0.22422
0.06526
0.08962
0.08267
0.06436
0.05893
0.08862
0.08512
0.05643
0.05673
0.09022
0.08672
0.06308
0.04946
0.09083
0.08719
0.21838
0.05408
0.19842
0.09077
0.08692
0.10597
0.19013
0.17136
0.11489
0.08989
0.08586
0.16201
0.14524
0.1421
0.04695
0.08814
0.08387
0.13934
0.12993
0.0451
0.15674
0.08561
0.08113
0.12367
0.10844
0.20474
0.08237
0.0778
0.06036
0.10198
0.05814
0.23291
0.23456
0.07026
0.08953
0.05836
0.07251
0.069
0.05798
0.05331
0.07266
0.07066
0.05317
0.2423
0.07554
0.07275
0.22828
0.23884
0.07669
0.07342
0.2227
0.22907
0.07662
0.0734
0.21236
0.21433
0.05074
0.07613
0.07286
0.19787
0.07789
0.04807
0.19687
0.07519
0.07177
0.1807
0.0516
0.08581
0.0864
0.07358
0.07008
0.05721
0.05749
0.17727
0.16147
0.07158
0.06805
0.06266
0.09333
0.15553
0.06926
0.06575
0.14069
0.11097
0.06669
0.06316
0.13405
0.06156
0.06353
0.05978
0.05758
0.12131
0.04741
0.12285
0.11499
0.0627
0.10486
0.04799
0.06502
0.0628
0.05008
0.15452
0.06487
0.06242
0.09931
0.04514
0.06447
0.06177
0.16833
0.04524
0.08991
0.06378
0.06106
0.20655
0.08456
0.07545
0.22667
0.06281
0.06005
0.21943
0.07147
0.06446
0.23811
0.06158
0.05877
0.22759
0.01893
0.18314
0.17079
0.05999
0.05705
0.04792
0.04346
0.17235
0.05809
0.05504
0.16005
0.04315
0.0559
0.05274
0.15953
0.14745
0.05348
0.0502
0.14498
0.0576
0.05268
0.05109
0.05905
0.0564
0.05111
0.0471
0.05619
0.05354
0.0426
0.04068
0.05536
0.05285
0.04158
0.13326
0.05443
0.0522
0.12874
0.11736
0.04216
0.0537
0.05158
0.11069
0.09996
0.04213
0.12034
0.05298
0.05089
0.09445
0.12972
0.08851
0.16508
0.05194
0.04964
0.0834
0.0521
0.1753
0.17062
0.05057
0.04826
0.05501
0.05308
0.07076
0.04904
0.04671
0.05496
0.05264
0.04742
0.04504
0.05867
0.18922
0.04586
0.04348
0.18186
0.05066
0.0438
0.04169
0.04904
0.06095
0.0415
0.19542
0.18534
0.05532
0.19552
0.0434
0.05639
0.05347
0.04416
0.04102
0.04642
0.04468
0.18413
0.05453
0.19107
0.04572
0.04388
0.17899
0.05292
0.0486
0.03894
0.04494
0.04291
0.13098
0.12223
0.04112
0.07011
0.04392
0.04204
0.03922
0.1204
0.11177
0.09118
0.04306
0.04121
0.10807
0.09898
0.09778
0.04208
0.04019
0.09588
0.09267
0.04097
0.03905
0.08107
0.049
0.03966
0.03749
0.04825
0.10345
0.03676
0.10736
0.08539
0.04669
0.12553
0.03823
0.04694
0.08142
0.03892
0.03614
0.1317
0.04773
0.03709
0.0746
0.04812
0.04629
0.1474
0.06328
0.04711
0.04543
0.15793
0.15166
0.03804
0.03634
0.05119
0.04671
0.15985
0.03759
0.03723
0.03559
0.04777
0.15242
0.04082
0.05384
0.03646
0.03477
0.15866
0.15002
0.15451
0.03561
0.03385
0.14538
0.04515
0.03462
0.03286
0.0436
0.04141
0.03354
0.03177
0.0426
0.04021
0.03368
0.03292
0.04041
0.14816
0.03342
0.03157
0.13898
0.0444
0.03226
0.14022
0.04445
0.0402
0.13122
0.03455
0.04171
0.03966
0.03512
0.06885
0.0408
0.0389
0.03882
0.03765
0.03987
0.03803
0.09033
0.03793
0.0829
0.03894
0.03717
0.08269
0.0786
0.10026
0.07698
0.03102
0.02983
0.0469
0.04459
0.10476
0.03037
0.02915
0.0426
0.07341
0.02973
0.02849
0.12663
0.01315
0.02916
0.02795
0.03519
0.06996
0.02856
0.0276
0.06276
0.0377
0.02809
0.1314
0.03764
0.03489
0.12429
0.03037
0.03572
0.03409
0.03079
0.05898
0.03563
0.03381
0.05907
0.0324
0.03474
0.03305
0.03272
0.13348
0.03378
0.03233
0.12683
0.05207
0.1331
0.03297
0.03167
0.12589
0.13043
0.12323
0.03886
0.03229
0.03111
0.12624
0.11913
0.03391
0.05428
0.03168
0.03047
0.12133
0.04489
0.11459
0.05519
0.02606
0.02481
0.03592
0.06105
0.02518
0.02392
0.1154
0.03305
0.024
0.10847
0.03254
0.03064
0.06234
0.02693
0.03013
0.10847
0.02755
0.10129
0.10005
0.03053
0.09241
0.02893
0.03068
0.02977
0.02863
0.01319
0.02992
0.02892
0.06916
0.09931
0.0292
0.02817
0.06675
0.05953
0.03481
0.02855
0.02752
0.10152
0.04309
0.03503
0.0583
0.02801
0.02698
0.04231
0.10701
0.05164
0.11167
0.02753
0.02647
0.10683
0.03998
0.0481
0.11026
0.02703
0.02595
0.03735
0.03949
0.10487
0.02655
0.0254
0.03673
0.03406
0.02849
0.02241
0.02768
0.0176
0.02321
0.10759
0.10198
0.02882
0.05206
0.02623
0.02878
0.02693
0.02649
0.02428
0.02749
0.02607
0.02685
0.10412
0.02631
0.02496
0.09867
0.02998
0.02531
0.02404
0.10023
0.03068
0.09485
0.02449
0.0233
0.09564
0.09008
0.08998
0.08413
0.02383
0.02274
0.07611
0.0832
0.07719
0.07894
0.02337
0.02229
0.07563
0.07012
0.08375
0.06823
0.02295
0.02188
0.02782
0.03389
0.08608
0.02261
0.02157
0.03037
0.05189
0.02224
0.02113
0.09756
0.09091
0.02112
0.01314
0.04827
0.02999
0.02296
0.02172
0.09557
0.0242
0.02402
0.09016
0.02352
0.0223
0.04387
0.02673
0.02218
0.02114
0.02871
0.09284
0.02124
0.02039
0.04
0.08783
0.02911
0.02059
0.01995
0.03976
0.04311
0.03173
0.04561
0.02025
0.01975
0.08974
0.08514
0.04414
0.04649
0.01982
0.01926
0.08663
0.08221
0.04509
0.03818
0.01944
0.01895
0.08331
0.07891
0.04085
0.01919
0.01869
0.05064
0.07943
0.01897
0.01829
0.0751
0.03018
0.01937
0.019
0.02819
0.05121
0.01949
0.07519
0.07109
0.02577
0.07036
0.02196
0.02523
0.06622
0.07436
0.06362
0.01945
0.01893
0.01578
0.07659
0.01889
0.01847
0.01326
0.06366
0.08125
0.0185
0.01815
0.06122
0.0552
0.08271
0.05372
0.01817
0.01779
0.09553
0.03802
0.06321
0.05967
0.01798
0.01755
0.0378
0.06276
0.05988
0.05648
0.0178
0.01737
0.0647
0.05902
0.05692
0.01771
0.01731
0.06986
0.02839
0.01778
0.0174
0.02796
0.02584
0.01725
0.013
0.02566
0.02342
0.0272
0.01886
0.02272
0.05691
0.01929
0.0188
0.05256
0.02305
0.01982
0.01937
0.02266
0.0202
0.02101
0.07122
0.02029
0.01944
0.05089
0.03124
0.07741
0.01649
0.01552
0.04797
0.0779
0.04767
0.04319
0.0159
0.01495
0.07885
0.04332
0.08059
0.07702
0.01551
0.01459
0.07815
0.03383
0.07427
0.03805
0.01532
0.01443
0.03118
0.07525
0.07138
0.01531
0.01446
0.03886
0.07233
0.01553
0.01481
0.06859
0.02455
0.01701
0.01686
0.02119
0.06932
0.01732
0.01708
0.06583
0.02078
0.01772
0.01747
0.02019
0.0191
0.01834
0.06631
0.01902
0.01838
0.06306
0.02089
0.01842
0.01787
0.02168
0.04971
0.01788
0.01714
0.04739
0.0247
0.01718
0.01629
0.03411
0.04729
0.03469
0.04425
0.01274
0.01259
0.06551
0.0452
0.04425
0.06596
0.01263
0.01246
0.04367
0.03889
0.07215
0.01266
0.01238
0.039
0.07328
0.01307
0.01264
0.06729
0.03957
0.01394
0.0135
0.06983
0.01996
0.01457
0.01394
0.01908
0.01837
0.01523
0.06538
0.01774
0.03989
0.06636
0.01806
0.06254
0.01711
0.01841
0.06328
0.01657
0.01568
0.0599
0.02037
0.01536
0.01427
0.02091
0.06063
0.01419
0.01337
0.05763
0.04044
0.05839
0.0134
0.01293
0.05566
0.03545
0.03927
0.03184
0.01297
0.01273
0.02887
0.02746
0.05638
0.01259
0.01271
0.02589
0.02335
0.01228
0.01244
0.02292
0.05312
0.01197
0.01258
0.05357
0.01896
0.01227
0.05068
0.01744
0.05156
0.04897
0.01476
0.03753
0.01671
0.01615
0.03472
0.01622
0.01432
0.0604
0.01847
0.01419
0.01319
0.01864
0.03421
0.01297
0.01291
0.0602
0.02258
0.01272
0.01306
0.03496
0.02598
0.05861
0.01279
0.01309
0.03533
0.03205
0.05875
0.05587
0.01282
0.01301
0.03293
0.03602
0.05598
0.05303
0.01284
0.01296
0.03621
0.03078
0.05339
0.05073
0.01276
0.01288
0.04887
0.01974
0.01248
0.01303
0.01821
0.05126
0.02385
0.0125
0.04881
0.01588
0.01234
0.05008
0.01478
0.04939
0.04669
0.01583
0.0463
0.01304
0.01669
0.01586
0.01265
0.01312
0.01804
0.04376
0.01304
0.01329
0.05576
0.04531
0.01304
0.01259
0.04324
0.05628
0.04422
0.01251
0.01163
0.04176
0.05992
0.04228
0.02941
0.01194
0.01095
0.04002
0.06218
0.03209
0.03299
0.01172
0.01082
0.04044
0.03794
0.03565
0.03115
0.01188
0.01116
0.0552
0.04982
0.0295
0.01227
0.01182
0.05109
0.04766
0.01258
0.01231
0.01753
0.01585
0.01273
0.02865
0.01458
0.03065
0.04786
0.01249
0.04519
0.01319
0.01316
0.01341
0.01292
0.01302
0.01643
0.03227
0.01317
0.01303
0.04546
0.01837
0.01254
0.01123
0.0233
0.04319
0.01079
0.00947
0.03317
0.04357
0.02677
0.00944
0.00901
0.04132
0.03736
0.03014
0.03208
0.00903
0.00879
0.04166
0.03095
0.03947
0.035
0.00853
0.00857
0.03022
0.03143
0.03968
0.03787
0.00859
0.00836
0.03474
0.03849
0.03661
0.00902
0.00855
0.05031
0.02168
0.00996
0.00951
0.01917
0.01824
0.01211
0.01213
0.01271
0.01323
0.01252
0.03724
0.01328
0.01267
0.03536
0.0497
0.01215
0.01037
0.03588
0.03408
0.00949
0.00864
0.05695
0.03426
0.00854
0.00963
0.03221
0.05737
0.0526
0.0096
0.01103
0.03139
0.05246
0.03079
0.05486
0.01054
0.01152
0.04082
0.03865
0.03086
0.03861
0.01057
0.01134
0.03654
0.02717
0.02926
0.03672
0.00998
0.01065
0.026
0.02321
0.03482
0.00889
0.00928
0.0198
0.03509
0.00825
0.00828
0.03345
0.02094
0.00925
0.01294
0.01521
0.03393
0.02005
0.01288
0.03239
0.01311
0.01248
0.01258
0.0092
0.00871
0.0175
0.01801
0.00893
0.01053
0.02149
0.02254
0.01107
0.01192
0.04679
0.02486
0.0257
0.01183
0.01111
0.03266
0.03121
0.02795
0.04645
0.01138
0.00999
0.03155
0.03021
0.0305
0.02913
0.01118
0.01021
0.05081
0.02553
0.02928
0.02776
0.01157
0.01133
0.0206
0.02223
0.04671
0.01134
0.01142
0.01915
0.01829
0.00958
0.0093
0.01738
0.02839
0.00888
0.00925
0.02802
0.01389
0.01144
0.01201
0.01278
0.013
0.01291
0.04818
0.0131
0.02782
0.04771
0.01286
0.02888
0.01127
0.01497
0.01576
0.01121
0.00916
0.04468
0.02782
0.04341
0.00791
0.00545
0.04119
0.02762
0.03134
0.02926
0.00553
0.00547
0.02998
0.03012
0.03101
0.02891
0.00561
0.00503
0.0466
0.02912
0.02784
0.04325
0.00803
0.00781
0.0282
0.02037
0.02702
0.01121
0.01143
0.01829
0.02742
0.01111
0.01068
0.02621
0.04309
0.00876
0.00877
0.02664
0.01378
0.01002
0.02539
0.01297
0.0428
0.02593
0.01298
0.02459
0.01242
0.01257
0.01282
0.01084
0.009
0.01441
0.04333
0.00877
0.01018
0.02425
0.04267
0.01129
0.01191
0.02565
0.04307
0.01212
0.01609
0.02612
0.02419
0.04278
0.03362
0.01051
0.01111
0.03739
0.02499
0.03619
0.03766
0.00496
0.00492
0.03507
0.02724
0.03503
0.00939
0.01052
0.03295
0.02708
0.01178
0.01145
0.02864
0.01581
0.0095
0.00901
0.01301
0.03293
0.01005
0.01125
0.03129
0.01304
0.01279
0.01297
0.01215
0.04278
0.01277
0.02489
0.0237
0.00882
0.02403
0.01536
0.01024
0.01157
0.01714
0.01833
0.01159
0.01024
0.02099
0.02269
0.007
0.00524
0.04136
0.02316
0.02182
0.00695
0.01212
0.03991
0.02242
0.02112
0.03864
0.00673
0.00476
0.02177
0.0205
0.03882
0.0086
0.01061
0.02219
0.01737
0.0119
0.01109
0.01598
0.0146
0.00899
0.00855
0.01304
0.01283
0.01065
0.01208
0.01308
0.02157
0.01307
0.03865
0.02187
0.01041
0.02044
0.01286
0.00888
0.00934
0.01446
0.03802
0.01129
0.012
0.0341
0.02096
0.01015
0.00766
0.03418
0.02171
0.00514
0.00855
0.03621
0.02384
0.0317
0.0154
0.01983
0.03301
0.03086
0.0233
0.0277
0.02197
0.02916
0.02705
0.03119
0.03219
0.01789
0.01516
0.02548
0.03018
0.02406
0.03016
0.01143
0.00997
0.02866
0.0303
0.00855
0.00949
0.01296
0.0239
0.01171
0.02861
0.02724
0.01264
0.02456
0.01299
0.01106
0.00983
0.01269
0.02725
0.00907
0.01019
0.02589
0.01553
0.01185
0.01165
0.01788
0.04597
0.00889
0.00688
0.02601
0.02464
0.00624
0.00865
0.01954
0.01896
0.02482
0.01735
0.01833
0.0192
0.01867
0.02853
0.01901
0.02253
0.01962
0.01848
0.03515
0.01855
0.01858
0.01642
0.01093
0.03444
0.02253
0.03122
0.01858
0.00554
0.00585
0.01896
0.03047
0.01977
0.00995
0.01151
0.02875
0.02039
0.0121
0.0129
0.01309
0.01282
0.01304
0.02415
0.01089
0.02785
0.02663
0.01319
0.01292
0.00988
0.01477
0.01652
0.01173
0.01182
0.01813
0.01929
0.00977
0.009
0.02013
0.02237
0.00498
0.00501
0.0262
0.0248
0.02287
0.01024
0.00855
0.02457
0.02311
0.02357
0.02304
0.0129
0.00844
0.02173
0.02468
0.02831
0.02184
0.00775
0.0051
0.02087
0.02551
0.029
0.02128
0.00683
0.00974
0.02031
0.02483
0.02022
0.01166
0.01163
0.01942
0.03312
0.01027
0.00883
0.03385
0.01754
0.00916
0.01326
0.0169
0.01301
0.01312
0.01445
0.00877
0.00893
0.01659
0.03188
0.01083
0.01104
0.02972
0.01677
0.01144
0.01139
0.02855
0.02165
0.00884
0.00939
0.01794
0.02357
0.02694
0.00578
0.00722
0.02808
0.01814
0.02612
0.02764
0.0055
0.00764
0.02462
0.01898
0.0244
0.02262
0.00765
0.01029
0.01991
0.02193
0.02241
0.0404
0.01122
0.01183
0.01971
0.01914
0.04273
0.01147
0.00987
0.01786
0.01717
0.00886
0.00905
0.0142
0.02103
0.01039
0.01217
0.02082
0.01304
0.01304
0.01988
0.01308
0.01977
0.01927
0.01272
0.01924
0.01002
0.01917
0.01882
0.01089
0.01057
0.01877
0.01821
0.01179
0.01176
0.0395
0.03216
0.01826
0.01122
0.01184
0.01781
0.03895
0.03558
0.01795
0.0112
0.01196
0.01747
0.03416
0.01775
0.01722
0.01196
0.0116
0.02643
0.01568
0.02541
0.02284
0.0114
0.0098
0.01774
0.02246
0.02069
0.00917
0.00872
0.01804
0.02071
0.00976
0.01181
0.01956
0.01452
0.01296
0.01308
0.01285
0.01903
0.01922
0.01293
0.01945
0.01302
0.01276
0.01342
0.01223
0.01881
0.01481
0.01998
0.01868
0.00854
0.01823
0.01754
0.00925
0.00898
0.01815
0.02919
0.0175
0.01111
0.01043
0.02314
0.0175
0.01659
0.02674
0.01116
0.00992
0.01656
0.02589
0.01566
0.01603
0.01012
0.00884
0.02351
0.01505
0.03431
0.0155
0.00887
0.00895
0.01452
0.03293
0.01505
0.00968
0.01101
0.0141
0.01797
0.01249
0.01722
0.01605
0.01543
0.01604
0.01308
0.01352
0.01318
0.01278
0.01309
0.01266
0.02859
0.01401
0.01472
0.01382
0.01217
0.02792
0.01663
0.01041
0.01071
0.01774
0.01876
0.00881
0.00908
0.0197
0.02163
0.00846
0.00838
0.02268
0.02479
0.00974
0.00957
0.01539
0.01505
0.03367
0.0192
0.00943
0.01063
0.01763
0.02239
0.01837
0.01815
0.01082
0.01218
0.01999
0.01943
0.01784
0.01249
0.01318
0.01761
0.01779
0.01327
0.01314
0.0171
0.01745
0.013
0.01237
0.01478
0.01957
0.01325
0.01678
0.01566
0.01262
0.02038
0.01608
0.01297
0.01289
0.01723
0.01818
0.01287
0.01284
0.01904
0.01553
0.01156
0.01202
0.0144
0.01444
0.01027
0.01299
0.01359
0.01365
0.03823
0.00853
0.01317
0.03577
0.01319
0.00907
0.00928
0.01298
0.03287
0.01292
0.03162
0.00939
0.00953
0.02033
0.01976
0.01295
0.0134
0.01295
0.01821
0.0179
0.01294
0.01295
0.01714
0.01282
0.01322
0.01453
0.01291
0.01446
0.01489
0.01663
0.01263
0.01262
0.01723
0.01829
0.0125
0.01281
0.01882
0.01281
0.02559
0.01294
0.01237
0.01976
0.01293
0.0352
0.02183
0.02432
0.01499
0.0113
0.02158
0.01479
0.01034
0.01164
0.02064
0.0158
0.01543
0.01105
0.01214
0.01409
0.02959
0.01382
0.0132
0.01173
0.01268
0.02775
0.01302
0.0131
0.04095
0.01268
0.01321
16.34185
0.02318

SCALARS pressure-source_2 float 1
LOOKUP_TABLE default
0.0165
0.01031
0.02135
0.02244
0.00543
0.00593
0.00691
0.00899
0.04382
0.01146
0.01292
0.02685
0.02482
0.01295
0.14908
0.01764
0.01542
0.03753
0.0097
0.01434
0.01441
0.01231
0.01405
0.01465
0.02195
0.01495
0.01442
0.04099
0.01085
0.01519
0.03737
0.01069
0.01155
0.02496
0.02993
0.01345
0.01327
0.02627
0.00861
0.00664
0.03533
0.03275
0.03302
0.00825
0.01029
0.03543
0.02364
0.01995
0.0303
0.01903
0.01873
0.02715
0.03557
0.03897
0.01204
0.02311
0.01887
0.00744
0.02425
0.02208
0.04264
0.01829
0.0071
0.10718
0.01316
0.0099
0.0209
0.0106
0.01026
0.01956
0.01333
0.01334
0.00594
0.006
0.01997
0.01705
0.01154
0.01023
0.00933
0.00725
0.01522
0.01453
0.01104
0.01237
0.01087
0.00675
0.01469
0.01443
0.01429
0.01476
0.00669
0.0066
0.01308
0.02311
0.01447
0.00868
0.0117
0.02145
0.00976
0.01318
0.01312
0.01655
0.0122
0.01191