# vtk DataFile Version 3.0
Mesh2HRTF Files
ASCII
DATASET POLYDATA
POINTS 1208 float
 0.0021  0.0865 -0.0122
 0.0015  0.0873 -0.0034
 0.0097  0.0868 -0.0039
 0.0103  0.0859 -0.0125
 0.0067  0.0173 -0.0854
-0.0024  0.0177  0.0856
-0.0082  0.0870  0.0048
-0.0025  0.0361  0.0796
 0.0005  0.0044 -0.0874
 0.0077  0.0261 -0.0831
-0.0105  0.0129  0.0858
 0.0016  0.0848 -0.0212
 0.0105  0.0842 -0.0209
-0.0095  0.0860  0.0129
-0.0005  0.0444  0.0754
 0.0033  0.0821 -0.0298
 0.0117  0.0818 -0.0283
 0.0070  0.0354 -0.0796
 0.0005  0.0518  0.0705
-0.0461  0.0047 -0.0741
 0.0081  0.0786 -0.0374
-0.0105  0.0842  0.0212
 0.0024  0.0586  0.0649
-0.0000  0.0747 -0.0454
 0.0103  0.0737 -0.0458
-0.0047  0.0642  0.0592
 0.0055  0.0644  0.0589
 0.0030  0.0697 -0.0527
 0.0124  0.0682 -0.0533
-0.0018  0.0703  0.0519
 0.0043  0.0450 -0.0749
 0.0047  0.0632 -0.0601
-0.0111  0.0815  0.0295
-0.0045  0.0755  0.0438
 0.0040  0.0749  0.0450
 0.0058  0.0549 -0.0677
-0.0113  0.0781  0.0377
-0.0026  0.0791  0.0371
 0.0068  0.0791  0.0365
-0.0040  0.0587 -0.0648
 0.0149  0.0486 -0.0711
-0.0031  0.0824  0.0289
 0.0040  0.0828  0.0273
-0.0120  0.0736  0.0456
-0.0031  0.0651 -0.0583
-0.0024  0.0849  0.0207
 0.0057  0.0848  0.0203
-0.0129  0.0683  0.0530
-0.0023 -0.0018  0.0873
-0.0068  0.0697 -0.0524
-0.0068  0.0576  0.0655
-0.0035  0.0788 -0.0376
-0.0011  0.0865  0.0127
 0.0072  0.0862  0.0126
-0.0080  0.0503  0.0711
-0.0054  0.0823 -0.0290
-0.0088  0.0424  0.0760
-0.0074  0.0849 -0.0195
 0.0002  0.0874  0.0047
 0.0086  0.0870  0.0045
 0.0067  0.0089 -0.0868
-0.0116  0.0333  0.0800
-0.0107  0.0230  0.0836
-0.0048  0.0866 -0.0102
 0.0160  0.0557 -0.0655
-0.0066  0.0871 -0.0030
 0.0002 -0.0382 -0.0786
 0.0117  0.0815  0.0294
 0.0158  0.0399 -0.0761
 0.0140  0.0836  0.0213
-0.0187  0.0827  0.0214
 0.0161  0.0306 -0.0803
 0.0157  0.0850  0.0130
-0.0192  0.0799  0.0298
-0.0049  0.0509 -0.0709
 0.0170  0.0857  0.0044
-0.0194  0.0762  0.0381
-0.0203  0.0715  0.0460
 0.0179  0.0855 -0.0042
 0.0055  0.0308  0.0816
-0.0115  0.0628 -0.0597
 0.0185  0.0845 -0.0129
-0.0150  0.0621  0.0596
 0.0188  0.0826 -0.0215
-0.0107  0.0741 -0.0451
 0.0190  0.0797 -0.0303
-0.0162  0.0552  0.0658
 0.0186  0.0761 -0.0387
 0.0119  0.0578  0.0646
 0.0203  0.0713 -0.0463
-0.0147  0.0780 -0.0368
-0.0166  0.0480  0.0711
 0.0095  0.0694  0.0523
 0.0139  0.0620 -0.0600
 0.0131  0.0738  0.0451
-0.0135  0.0819 -0.0273
-0.0166  0.0409  0.0754
 0.0222  0.0818  0.0214
 0.0239  0.0831  0.0130
-0.0023  0.0079  0.0870
-0.0231 -0.0138 -0.0831
-0.0223  0.0357  0.0766
 0.0252  0.0837  0.0043
-0.0027  0.0273  0.0830
-0.0124  0.0856 -0.0122
 0.0261  0.0834 -0.0045
-0.0149  0.0860 -0.0040
-0.0017  0.0216 -0.0848
 0.0265  0.0822 -0.0133
 0.0052  0.0385  0.0783
 0.0267  0.0802 -0.0222
 0.0094  0.0449  0.0745
 0.0271  0.0771 -0.0308
 0.0084  0.0526  0.0693
 0.0284  0.0730 -0.0387
 0.0001  0.0296 -0.0823
-0.0183  0.0179  0.0835
 0.0158  0.0627  0.0588
 0.0219  0.0657 -0.0534
 0.0198  0.0672  0.0524
 0.0231  0.0594 -0.0599
 0.0098 -0.0370 -0.0786
 0.0236  0.0522 -0.0660
 0.0163  0.0774  0.0373
-0.0166  0.0858  0.0044
 0.0197  0.0798  0.0296
 0.0157  0.0210 -0.0834
-0.0179  0.0846  0.0129
 0.0333  0.0808  0.0042
 0.0341  0.0804 -0.0046
-0.0277  0.0740  0.0375
-0.0146  0.0545 -0.0667
-0.0283  0.0698  0.0443
 0.0345  0.0792 -0.0134
-0.0242  0.0655  0.0526
 0.0346  0.0771 -0.0222
-0.0165  0.0676 -0.0529
 0.0351  0.0739 -0.0306
 0.0162  0.0495  0.0703
 0.0198 -0.0348 -0.0777
 0.0209  0.0548  0.0648
 0.0301  0.0679 -0.0461
 0.0256  0.0596  0.0587
 0.0312  0.0621 -0.0531
-0.0250  0.0586  0.0599
-0.0211  0.0716 -0.0457
 0.0220  0.0718  0.0448
 0.0246 -0.0180 -0.0820
 0.0248  0.0752  0.0370
 0.0262  0.0434 -0.0713
 0.0278  0.0775  0.0293
-0.0245  0.0438  0.0715
 0.0302  0.0792  0.0212
-0.0215  0.0794 -0.0296
-0.0170  0.0833 -0.0203
 0.0320  0.0804  0.0128
 0.0060  0.0125  0.0864
-0.0206  0.0840 -0.0127
 0.0422  0.0754 -0.0130
 0.0424  0.0734 -0.0212
 0.0129  0.0355  0.0789
-0.0232  0.0842 -0.0044
 0.0425  0.0708 -0.0285
-0.0249  0.0837  0.0042
 0.0384  0.0689 -0.0378
 0.0295  0.0512  0.0645
 0.0394  0.0632 -0.0459
-0.0261  0.0825  0.0128
-0.0033  0.0363 -0.0795
 0.0303  0.0639  0.0514
 0.0316  0.0558 -0.0594
 0.0296  0.0700  0.0432
 0.0315  0.0495 -0.0649
 0.0327  0.0723  0.0365
-0.0069  0.0430 -0.0758
 0.0356  0.0744  0.0290
 0.0252  0.0341 -0.0765
 0.0379  0.0759  0.0210
-0.0269  0.0804  0.0214
-0.0273  0.0775  0.0297
 0.0398  0.0769  0.0126
-0.0206  0.0605 -0.0596
-0.0341  0.0602  0.0535
 0.0411  0.0771  0.0041
-0.0262  0.0643 -0.0531
-0.0252  0.0513  0.0661
 0.0419  0.0767 -0.0046
-0.0255  0.0745 -0.0379
 0.0482  0.0664 -0.0302
 0.0465  0.0631 -0.0386
 0.0244  0.0462  0.0701
-0.0468 -0.0737  0.0046
 0.0510  0.0130 -0.0697
 0.0349  0.0549  0.0584
 0.0400  0.0570 -0.0529
-0.0255  0.0808 -0.0215
 0.0393  0.0506 -0.0596
 0.0366  0.0656  0.0448
 0.0370  0.0437 -0.0661
 0.0401  0.0683  0.0370
-0.0288  0.0814 -0.0132
 0.0430  0.0704  0.0290
-0.0193  0.0275  0.0807
 0.0453  0.0718  0.0208
-0.0313  0.0815 -0.0047
 0.0241  0.0244 -0.0804
 0.0472  0.0726  0.0124
-0.0330  0.0809  0.0040
-0.0341  0.0795  0.0128
 0.0485  0.0727  0.0039
 0.0058  0.0220  0.0844
-0.0348  0.0773  0.0214
 0.0492  0.0722 -0.0047
 0.0135  0.0266  0.0822
-0.0151  0.0454 -0.0731
 0.0494  0.0709 -0.0132
-0.0351  0.0743  0.0298
 0.0492  0.0689 -0.0216
 0.0192  0.0407  0.0750
 0.0488  0.0565 -0.0455
 0.0478  0.0505 -0.0531
-0.0352  0.0705  0.0378
 0.0402  0.0579  0.0518
-0.0347  0.0657  0.0460
 0.0438  0.0613  0.0444
-0.0313  0.0674 -0.0459
 0.0471  0.0641  0.0363
 0.0358  0.0353 -0.0715
 0.0499  0.0658  0.0284
-0.0334  0.0460  0.0664
 0.0523  0.0670  0.0204
 0.0380  0.0198 -0.0763
-0.0316  0.0383  0.0719
 0.0541  0.0676  0.0120
-0.0300  0.0765 -0.0300
-0.0337  0.0777 -0.0217
 0.0554  0.0676  0.0035
-0.0289  0.0304  0.0766
 0.0150  0.0120 -0.0854
 0.0560  0.0670 -0.0050
-0.0368  0.0782 -0.0133
-0.0391  0.0780 -0.0047
 0.0561  0.0657 -0.0135
-0.0408  0.0773  0.0041
 0.0556  0.0638 -0.0218
 0.0288  0.0358  0.0744
 0.0547  0.0613 -0.0298
 0.0320  0.0431  0.0690
 0.0536  0.0582 -0.0371
 0.0378  0.0460  0.0640
 0.0460  0.0444 -0.0597
 0.0437  0.0386 -0.0652
 0.0502  0.0577  0.0423
 0.0534  0.0593  0.0355
-0.0088  0.0277 -0.0825
 0.0563  0.0607  0.0279
 0.0326  0.0269 -0.0765
 0.0588  0.0616  0.0199
-0.0418  0.0757  0.0128
-0.0424  0.0734  0.0215
 0.0606  0.0620  0.0117
-0.0425  0.0702  0.0299
-0.0237  0.0470 -0.0698
 0.0618  0.0619  0.0032
-0.0423  0.0662  0.0382
-0.0242  0.0539 -0.0644
 0.0622  0.0612 -0.0054
-0.0420  0.0612  0.0461
-0.0301  0.0569 -0.0592
 0.0621  0.0599 -0.0139
 0.0211  0.0313  0.0789
 0.0614  0.0580 -0.0224
-0.0343  0.0533  0.0601
 0.0602  0.0555 -0.0306
-0.0380  0.0730 -0.0295
 0.0582  0.0523 -0.0389
-0.0415  0.0739 -0.0214
 0.0561  0.0482 -0.0467
 0.0437  0.0488  0.0579
-0.0320  0.0175  0.0794
 0.0494  0.0513  0.0506
-0.0443  0.0741 -0.0131
-0.0262  0.0223  0.0803
 0.0622  0.0547  0.0277
 0.0646  0.0554  0.0197
-0.0466  0.0738 -0.0046
-0.0111  0.0182 -0.0848
 0.0664  0.0557  0.0113
-0.0482  0.0729  0.0041
 0.0235  0.0141 -0.0831
 0.0675  0.0555  0.0028
 0.0139  0.0170  0.0847
-0.0491  0.0712  0.0128
 0.0679  0.0548 -0.0058
-0.0148  0.0351 -0.0787
-0.0495  0.0687  0.0214
 0.0676  0.0535 -0.0144
 0.0287  0.0259  0.0785
 0.0667  0.0517 -0.0229
-0.0496  0.0655  0.0297
 0.0651  0.0492 -0.0313
 0.0378  0.0367  0.0698
 0.0633  0.0457 -0.0394
 0.0447  0.0393  0.0641
-0.0494  0.0616  0.0375
 0.0513  0.0413  0.0575
 0.0544  0.0425 -0.0536
-0.0492  0.0572  0.0443
 0.0516  0.0367 -0.0603
 0.0553  0.0518  0.0436
 0.0473  0.0310 -0.0667
 0.0591  0.0536  0.0355
 0.0061  0.0031  0.0872
-0.0440  0.0540  0.0528
 0.0312  0.0173 -0.0799
-0.0362  0.0596 -0.0527
 0.0716  0.0489  0.0110
 0.0727  0.0486  0.0024
-0.0426  0.0468  0.0602
-0.0345  0.0709 -0.0378
 0.0729  0.0479 -0.0062
 0.0210  0.0220  0.0820
-0.0515  0.0694 -0.0131
 0.0725  0.0466 -0.0148
-0.0405 -0.0416 -0.0653
 0.0714  0.0447 -0.0231
 0.0367  0.0277  0.0744
 0.0699  0.0424 -0.0309
-0.0536  0.0689 -0.0046
 0.0682  0.0394 -0.0379
 0.0510  0.0319  0.0635
 0.0629  0.0392 -0.0464
-0.0257  0.0130  0.0825
 0.0598  0.0338 -0.0541
 0.0578  0.0423  0.0502
-0.0551  0.0678  0.0041
 0.0606  0.0470  0.0419
-0.0185  0.0078  0.0851
 0.0643  0.0476  0.0351
 0.0419  0.0260 -0.0722
 0.0674  0.0483  0.0275
-0.0560  0.0659  0.0128
 0.0699  0.0488  0.0194
-0.0562  0.0634  0.0214
-0.0235  0.0387 -0.0748
-0.0561  0.0600  0.0297
 0.0069  0.0002 -0.0872
 0.0772  0.0404 -0.0067
 0.0767  0.0392 -0.0152
-0.0557  0.0559  0.0376
 0.0754  0.0374 -0.0235
-0.0318  0.0490 -0.0651
 0.0735  0.0352 -0.0316
 0.0440  0.0299  0.0694
 0.0707  0.0325 -0.0399
-0.0543  0.0509  0.0457
 0.0673  0.0292 -0.0476
 0.0575  0.0325  0.0573
-0.0387  0.0514 -0.0593
-0.0517  0.0458  0.0534
 0.0558  0.0283 -0.0610
 0.0644  0.0400  0.0436
 0.0511  0.0221 -0.0674
 0.0687  0.0406  0.0356
-0.0419  0.0621 -0.0451
 0.0720  0.0413  0.0274
 0.0448  0.0166 -0.0732
 0.0745  0.0416  0.0191
-0.0409  0.0394  0.0664
-0.0419  0.0677 -0.0361
 0.0762  0.0416  0.0106
-0.0383  0.0318  0.0718
-0.0454  0.0688 -0.0290
 0.0771  0.0413  0.0020
 0.0350  0.0184  0.0780
-0.0487  0.0694 -0.0213
 0.0786  0.0298 -0.0241
 0.0763  0.0276 -0.0324
 0.0495  0.0236  0.0681
 0.0735  0.0247 -0.0404
 0.0560  0.0232  0.0630
-0.0351  0.0244  0.0762
-0.0616  0.0620  0.0039
 0.0640  0.0243 -0.0544
 0.0638  0.0320  0.0506
 0.0599  0.0195 -0.0606
 0.0686  0.0329  0.0430
 0.0563  0.0144 -0.0653
 0.0727  0.0338  0.0348
-0.0622  0.0601  0.0126
 0.0759  0.0341  0.0268
-0.0251  0.0292 -0.0785
 0.0783  0.0342  0.0185
-0.0107  0.0026  0.0867
-0.0624  0.0574  0.0212
 0.0799  0.0340  0.0101
-0.0620  0.0539  0.0296
 0.0223  0.0028 -0.0845
 0.0808  0.0335  0.0015
-0.0319  0.0410 -0.0703
-0.0613  0.0494  0.0378
 0.0808  0.0327 -0.0071
-0.0605  0.0437  0.0454
-0.0454  0.0531 -0.0526
 0.0800  0.0314 -0.0157
-0.0499  0.0390  0.0602
-0.0481  0.0625 -0.0377
 0.0763  0.0172 -0.0391
 0.0711  0.0185 -0.0473
 0.0626  0.0226  0.0568
 0.0667  0.0142 -0.0548
 0.0688  0.0218  0.0493
-0.0438  0.0242  0.0716
[...]
CELL_DATA 2412

SCALARS phase_in_degree-source_1 float 1
LOOKUP_TABLE default
-33.26628
-10.11064
179.68954
-153.62946
17.62724
14.9026
36.54556
-2.96942
69.50162
68.94125
89.09508
-85.08864
-114.70897
125.63884
136.54508
-38.84353
57.04331
22.71998
-157.44012
18.39678
-2.59842
-120.05928
-94.3513
-41.75166
-57.06553
-55.47332
-30.25033
46.00403
-123.60683
14.70128
14.67421
-163.23234
-178.63618
-109.71731
-46.85879
139.47675
121.47541
-60.90088
79.35807
62.96861
-12.17972
-44.91914
-9.09021
28.50588
16.05566
21.26611
-37.60332
-16.25389
-76.28705
-18.87636
-24.4475
-110.8569
22.51804
55.27147
14.59232
-54.14433
-37.77945
36.0194
-143.86437
179.52464
88.09289
75.37783
69.60724
13.45609
125.69415
91.13044
145.74385
89.96873
85.64159
97.493
127.99169
148.75904
47.42596
46.31852
105.07434
58.68718
-178.18917
-154.35099
11.83641
19.2859
21.88995
-9.19426
-118.07134
-92.22993
-3.99133
14.33902
-47.79077
-70.86677
-56.48889
-28.7068
11.61724
34.8636
-105.88398
-136.0588
7.08897
47.46237
72.08187
-171.23748
177.2938
92.0253
119.22601
79.2359
140.36885
142.10331
169.799
118.48272
70.85822
-160.70399
-129.74561
18.75577
118.3785
-97.89514
-68.10698
140.74197
-59.95201
-35.11463
77.97833
-98.2481
-111.56619
56.78594
35.10523
-153.94963
43.73022
-139.4511
13.61646
83.56124
88.33921
-13.92962
-50.40883
-15.01841
-36.65631
58.4683
70.46025
-15.53541
-47.40094
-75.94411
-14.52041
50.44283
69.06348
19.44259
-6.78354
17.39248
-109.68937
62.98369
85.86888
-136.27544
54.78252
38.58572
92.1436
117.53066
63.08212
166.4206
133.23268
160.46393
131.87595
112.1193
-177.70899
-149.06832
53.95483
-171.7453
-123.75778
-91.53887
90.39162
5.6078
-64.0975
114.75658
-31.53115
-41.5798
145.91012
-7.23449
-80.20279
63.93334
24.63694
53.32984
24.77937
-163.33796
85.33694
119.76839
158.32081
155.48287
151.0428
-170.6651
118.97974
118.67085
170.02816
57.74726
-156.76712
106.11559
124.86917
-74.65742
-131.68418
22.8441
-10.19293
117.20815
139.45541
-96.19967
-134.87669
-67.31897
142.0379
166.53818
-169.42952
-47.57072
178.41629
-155.00171
-34.03881
40.17593
-135.56632
-102.52976
81.5608
75.39884
-79.35497
-124.91024
37.09689
31.08967
33.53986
-33.01629
-6.57416
-163.19773
-4.53439
25.53231
179.47079
-88.35642
55.6516
70.20962
-130.91314
-135.69366
95.02869
138.48983
-172.31753
-172.42582
121.49767
132.22234
154.13031
158.0955
154.20596
75.35819
138.92897
127.09804
135.80559
-164.67668
-148.30666
-119.83257
3.11452
109.94332
123.91343
41.16361
-44.61887
-117.28863
-165.69482
-143.08985
-84.6377
-174.74076
-134.43605
-111.82925
116.58742
-26.50297
-91.45279
100.44813
-18.87273
107.76549
14.05741
-45.32389
66.53541
76.87483
-21.73401
13.17196
102.37702
-11.84843
35.94461
167.45437
-51.35624
-59.45404
122.90389
81.84094
-105.41616
-106.8405
118.17159
148.32263
-137.91366
-133.98401
128.65812
174.12566
-164.24299
-156.71623
-161.56281
-131.66864
-101.14519
175.57107
-173.05219
-109.15502
-73.60713
-71.47112
-57.05688
163.94801
179.29041
-3.25504
-97.71649
-106.64382
30.36155
162.83574
-178.3325
61.1604
-72.98675
-147.6072
26.52239
173.10877
-165.53608
-104.92672
92.63702
-62.63831
-37.79784
103.74959
122.16003
-25.6183
14.7059
-19.46058
65.42715
32.77599
134.16636
29.78082
151.43478
-169.8926
68.14121
104.09243
-40.70967
89.68439
122.6371
-68.25521
-62.8357
142.72176
179.23286
-94.77693
-87.64337
-156.98884
66.6125
-116.90244
-106.9453
-177.42282
36.24068
42.66048
-132.48642
-119.44826
17.42257
31.43151
16.91843
38.2411
-140.41737
-124.31429
39.49566
64.03432
124.75672
103.2756
-139.89866
-120.87311
-151.04072
-124.0298
95.71753
-102.94943
-130.34075
-109.14699
-73.6299
16.11014
-52.75185
-112.47976
-89.58787
-22.39371
-27.05972
-87.51463
-63.23188
-33.2815
147.05958
3.0825
68.42698
39.39267
33.3973
85.92269
119.48898
3.20532
10.10128
138.4638
-70.21143
-24.57877
-18.83747
66.88333
-151.95678
-49.65108
-41.03888
128.25276
-117.47201
-67.43905
-55.85562
172.99634
-91.65264
-107.52419
-79.03286
-64.74095
-138.56094
-87.39911
109.44276
80.5248
-84.12841
-67.30342
91.51859
-7.53834
69.04029
85.62544
-82.26737
-63.28802
-39.66313
-48.00086
72.43975
93.86823
-73.39669
-52.52107
18.90789
91.61367
115.97402
-57.63753
-35.44067
-117.12465
-139.74062
-35.85674
-13.27538
-176.09995
178.03964
-9.02207
13.80904
135.56366
135.75376
30.51022
123.20122
105.72467
149.03151
-168.60705
167.38037
14.7162
21.47343
-167.25263
168.97825
-3.8944
6.85993
163.44736
-170.09696
-16.47458
-3.34462
40.92309
32.4913
-7.30325
-24.39079
-9.14108
28.40943
1.54158
52.94111
-31.8175
-27.23562
-9.95759
-72.28436
100.70161
-5.00159
-108.48884
-24.60984
-5.5596
-108.42993
161.61399
-102.46483
178.19124
-16.26479
4.36305
147.31628
-105.46933
155.69316
-2.27263
19.65975
-140.55734
-175.46506
16.83886
40.07471
129.5262
21.71111
40.79617
65.68164
176.10719
142.91002
63.4195
89.51029
-109.05984
110.90543
96.16234
132.95928
80.95107
88.60179
143.85611
123.12853
56.13881
56.59861
-95.42145
141.10589
36.86503
51.164
128.78975
150.43906
-41.38178
31.44725
47.46067
-81.65546
146.33189
-23.90918
170.54876
30.21633
47.81512
-131.35794
174.15644
-159.97492
-149.92134
33.38474
52.42256
-122.89769
-39.3759
-107.72123
-79.63154
41.19233
61.59584
-73.52746
-71.41135
80.94727
53.82409
75.54585
-103.44124
-95.11584
71.31375
94.49895
-159.34268
-60.08351
93.83694
119.11365
-30.96386
-174.84582
122.66655
157.01827
155.57623
166.21423
165.65101
-29.95532
137.34036
113.47591
149.45317
177.75318
-107.49984
80.72345
-171.42365
-138.39805
60.30707
71.07768
-133.77104
-105.76224
46.40357
58.7784
56.27047
58.57802
173.64258
19.43121
87.88492
105.68847
28.48724
-143.76012
40.71821
-138.23731
91.46293
110.45959
-127.77066
-167.7331
-156.88025
54.1159
98.88923
119.0296
-43.10315
-39.94626
-179.54384
110.52981
131.72041
-52.34673
-164.2026
126.74387
148.75249
-71.07621
-79.46026
148.41387
171.10773
178.43441
-133.61516
-178.88477
-162.63793
-149.03023
-18.17689
-15.6874
-160.03057
-174.15011
152.17801
-152.92101
-118.77941
128.36406
138.06217
-111.06184
-152.3287
105.76056
117.73067
-54.63495
-157.43243
97.20607
111.13953
-133.45486
-61.40163
91.13652
106.38642
88.09181
-51.65677
-132.12285
87.87141
104.41852
-106.52429
176.96392
-99.35397
-72.7054
156.78651
176.87877
146.62073
-60.35362
-33.5792
167.60339
-171.21192
94.25766
-15.94118
-177.7058
-155.31316
9.82784
-105.99918
-159.05232
-135.6753
-122.51704
67.3172
-145.08725
-122.20746
36.99519
-133.88153
-124.13518
-90.30805
-156.40241
1.88845
-86.42901
88.9906
-103.66666
167.92644
-96.2203
-77.13233
156.37783
171.40212
-71.58681
-96.18312
151.48448
166.44862
-119.99318
-106.68922
146.79841
162.71598
-29.75892
-126.44513
-109.72198
144.79735
161.82455
33.49261
0.50687
-125.26922
-105.74058
145.74045
163.80844
-14.32291
-116.56292
-94.74673
-62.42197
149.62747
168.66963
-100.40102
-36.68493
-121.52773
-99.47342
-60.02152
-52.16437
-105.15726
-81.7573
-83.74353
-68.81375
-84.96753
-52.68607
-87.49611
-76.6576
-50.60631
-107.13044
-76.95681
-135.67813
-51.61256
-55.26763
-150.68319
-129.9686
-48.54314
-19.32254
-150.3554
-135.13858
-3.89549
-10.03298
-155.45994
-139.89074
-39.7562
35.1432
-158.05202
-141.53846
-46.90703
-1.42689
-20.18796
-158.36835
-140.95626
156.32213
-11.38614
16.94883
129.84402
-156.39157
-138.14173
28.44476
59.41946
72.55006
59.88525
-152.09212
-133.02605
67.69417
97.17221
71.27121
43.11177
-145.10461
-125.07485
110.91839
148.77862
-26.39818
-134.97993
-113.93412
-26.53742
167.68136
-23.7102
-60.98623
-62.1759
-67.63574
-152.282
-18.43396
-84.88802
-62.24516
-19.04192
12.21764
-82.25731
-71.64412
12.03233
-71.67861
-101.32741
-86.49772
-53.98848
-68.25346
-103.2663
-86.81564
-48.32295
-58.67987
-103.03516
-85.92278
-36.82439
-42.8598
26.31869
-101.54056
-83.81958
-19.37521
-101.66972
50.56522
-20.98962
-98.5955
-80.24567
4.20483
28.98617
-141.19018
-139.16106
-93.88267
-74.7851
-5.58976
-6.82682
7.14107
34.11008
-86.96727
-67.16498
-31.22427
-168.21985
41.34985
-77.51533
-57.06995
70.72058
139.25127
-65.28515
-44.31708
81.72403
-35.31217
-49.42541
-27.79096
-12.50702
113.88096
50.71189
111.85682
126.30996
-41.9661
159.41321
41.4542
-50.17853
-33.64706
30.67921
51.44923
-48.99137
-31.98614
173.91567
69.18347
-47.15272
-29.52379
22.43924
65.4942
-154.59933
-44.3847
-26.22823
-37.15559
-135.03657
-99.1426
-57.42007
-40.58271
-21.86571
-45.51222
-80.46031
-45.96175
-68.47043
-35.45977
-16.30538
-53.63083
57.41853
-0.43062
21.29289
-28.78423
-9.00305
51.46658
88.00479
15.02001
-20.01677
0.52734
38.25128
90.33166
-8.85002
12.53358
35.89625
60.63449
4.90736
26.64929
62.55926
-5.30301
11.57725
31.89644
-20.69403
2.91421
23.34726
54.89388
-0.71821
17.32184
90.12278
115.11875
4.66635
22.88836
107.81348
89.04189
9.10833
27.40915
95.71086
124.74655
95.88176
13.2735
31.76329
137.05151
173.82427
91.14191
122.04045
17.82362
36.49603
-171.60268
95.81852
-149.09731
36.3307
22.99655
42.09991
-132.13952
19.94879
11.91677
21.12277
29.56511
49.30893
6.58691
24.56889
-75.84
37.83907
58.25649
7.35276
31.55386
48.00332
69.11487
-17.65883
-11.32624
59.40472
81.46879
1.66028
36.20876
72.48558
102.38124
47.11549
-25.82991
98.53541
-16.73975
-0.41036
14.38303
-16.32183
80.78724
2.05937
20.31772
74.67729
101.2048
66.01208
84.46529
2.22618
5.57824
-10.75969
70.88742
89.41872
9.40627
14.05322
47.28632
127.4084
75.6509
94.38568
93.11053
116.99374
97.78585
-71.98614
81.0775
100.24754
124.21381
118.14276
142.98802
-155.21902
87.57181
106.9653
149.57154
175.17715
-176.84686
95.24458
114.96001
-169.13414
-167.70955
104.42798
124.4363
-119.09286
48.89136
115.81925
136.42249
59.62006
160.43823
135.25397
150.76983
-136.48924
73.18143
112.11323
127.6435
63.35285
-122.66499
119.20372
146.22386
90.24346
53.49884
137.10506
-92.1548
52.58145
71.86942
50.94212
-38.99536
60.74464
79.19742
38.79951
54.49868
133.48908
152.6019
33.9898
65.32808
37.09328
129.18785
139.23926
158.42086
59.0643
54.34448
101.81302
12.06577
145.29293
164.79056
39.88106
58.88368
46.88709
152.34115
172.38753
67.28776
75.5218
160.91498
-178.25663
94.86218
114.16782
171.20984
-168.54514
97.15084
122.6727
171.72515
-172.14849
116.1248
57.91444
171.81495
-162.50144
79.58195
92.97221
-173.94389
73.2226
88.80357
116.1689
96.06194
164.36472
106.58903
126.66244
155.86019
-68.54307
114.63387
133.66773
125.65634
138.76539
121.49193
140.40766
-158.80905
134.25984
-130.82528
127.68091
146.63925
-132.84021
-106.95683
176.91745
-103.99774
-156.14282
-136.7358
60.13342
83.85488
159.71708
-149.70702
-129.8391
105.10931
-88.07889
-141.98359
-121.31791
114.28083
-107.08314
-133.78372
-112.24587
159.55148
-70.09919
-126.24454
-104.42536
-36.93672
145.25641
-117.43113
97.98537
139.28512
170.91663
113.24862
-148.15385
160.87411
178.21457
-157.50339
-11.26226
158.29221
178.16902
-10.97105
-173.37706
168.23944
-171.69733
-179.58746
87.66645
177.42805
-162.79158
104.28161
25.44465
90.26229
-174.72134
-155.19999
108.71351
96.06155
115.66908
127.91723
-167.93516
-148.66542
104.72728
125.43633
165.59775
11.76133
-161.98764
-142.75103
116.48654
78.50227
138.02776
5.05558
-86.33595
-66.1053
153.60873
-30.01701
-76.41978
-48.65397
131.52997
-171.32674
-57.50886
153.95569
-172.76969
-140.91111
-34.61985
-94.80845
-143.54044
150.1387
-107.51475
173.57322
173.05276
-149.37185
-161.71884
-126.60222
-148.33824
-128.14057
-131.66147
-89.80874
-135.90933
-115.9898
-67.82814
-175.98821
-125.46861
-105.86847
-58.88916
-20.92324
164.01092
-116.75213
-97.59392
168.75156
95.08568
162.9022
-11.91921
-109.66739
-90.88855
98.7533
145.62862
25.40492
139.52236
-103.65847
-85.14326
157.9308
114.24488
55.24144
145.07275
-98.37577
-79.88959
146.64727
119.05659
164.18059
-92.90641
-74.04895
145.39867
179.8762
-134.47131
-33.48296
-103.6579
92.81514
-50.0454
152.74483
172.85471
-109.41766
25.02089
-86.49125
-111.41534
-87.74501
-94.05707
-60.75595
-98.39381
-76.97973
-92.34037
162.79079
-82.52051
-61.98099
-176.38561
-146.54576
-70.01855
-50.01887
175.05707
-153.28437
-163.55026
-60.15464
-40.49782
-170.30682
-148.35396
-152.89131
-129.91642
-52.28175
-32.87637
-104.53787
-131.37093
-106.42309
-114.1062
-46.20633
-27.38621
-103.78605
-73.06303
-133.96374
-68.72606
-41.39234
-22.80135
-99.50338
175.99414
-141.64291
-36.69547
-18.14774
-144.1494
23.1796
-30.54553
-11.49487
-170.54731
-150.57411
-16.38115
-101.86524
53.60286
-136.47847
-47.486
-32.23227
-170.22141
-54.79698
-56.56902
-150.7699
-46.65363
-24.20125
84.33098
-97.03111
-27.26938
-5.34269
-127.63155
-160.94467
-12.76374
8.74396
117.25711
-140.74268
-133.40427
-1.24795
19.49596
120.60407
91.8741
-164.19285
71.82081
7.59638
27.24465
-150.60043
-130.00123
84.6893
63.25624
13.96368
33.30519
-139.18979
-118.2311
73.67266
124.97824
18.62166
37.48427
-126.50115
-105.23785
96.16348
22.24848
40.55674
36.57948
-112.18795
25.48634
42.40369
-90.55989
-139.14864
17.59379
33.89475
-105.30886
33.92032
17.15712
-95.57273
-73.92635
-71.13149
-75.67674
-29.7201
-68.47331
-54.30467
-89.11611
-47.39691
28.86311
51.65678
122.88545
-98.51969
45.4176
66.40593
-106.4944
-40.11368
-116.21486
57.72737
77.54726
-35.41137
6.10401
-128.11623
14.241
66.05288
85.37355
-159.85183
140.1925
-38.92282
-17.32209
73.07187
90.61625
145.83883
-35.13723
-22.80782
-1.78888
76.77656
93.1814
-43.48232
-15.20312
2.14163
78.20847
93.26582
-68.08846
-105.57597
76.66692
90.28785
-101.44887
-74.04569
76.58495
-87.46634
-74.95633
-42.38268
-88.72324
38.23424
-36.2177
-4.83977
15.49735
32.72593
22.10742
-33.05662
6.25066
18.60231
-26.80848
6.32163
-13.91504
-76.51023
7.28378
32.61741
31.35883
-148.40294
-97.9212
112.68564
132.52594
52.75263
-107.63456
55.46913
89.02875
122.12476
141.28651
-116.82958
88.20714
-117.61216
-97.17192
127.9186
145.99696
-105.85258
177.12988
-85.25763
128.35664
130.18253
146.93425
-150.33999
-93.85557
-72.79851
129.13059
144.08839
123.81236
-81.20798
124.54495
135.80836
-59.99037
-56.2186
105.15198
110.71491
-15.3109
-68.03319
84.33688
98.27494
-46.50637
0.10725
75.20926
87.38245
6.53751
45.25259
61.76306
-53.73538
46.53128
69.6385
-32.33302
0.55074
61.38923
84.54894
-21.42798
40.82681
82.60113
104.01897
61.86522
-70.6889
99.61248
120.05314
171.14285
56.08944
160.46246
81.03402
-170.67342
-150.57124
-46.12171
70.38679
94.98131
-52.84508
-169.93831
-151.82544
90.989
127.73332
-71.19903
-174.87981
-159.19694
126.25309
-76.92099
172.75066
-174.58595
-53.20134
118.62368
154.11896
167.03769
-67.26784
18.55326
141.86915
156.2397
32.71064
69.29695
130.47351
-45.47611
80.62013
115.49195
-51.92903
73.1911
-30.1147
100.1531
47.97521
-37.28516
110.7046
132.77968
-15.57733
7.20274
134.07373
157.52284
-5.10032
-23.25773
154.51008
178.68912
-1.72807
111.68763
-9.60209
171.24763
-165.21549
11.61968
157.67481
119.7904
-158.80563
-176.96873
-154.99102
-125.02833
-93.07863
3.52629
-117.76461
-105.78169
-77.34555
-39.23729
-130.26974
-117.68305
-36.27338
24.3215
-143.73794
-125.17316
17.23704
40.90155
-147.96763
38.59853
93.35548
30.67636
51.15221
141.0038
133.36777
117.29578
114.51509
169.76647
126.6413
156.00954
-18.28358
66.31113
158.15549
-173.41593
49.89411
170.24871
-169.32153
-142.54474
-22.86311
-40.3329
-143.39439
-120.12722
159.82392
-83.78465
-18.54633
-125.39308
-105.42747
155.26941
-174.18815
-14.45301
8.0503
-114.47398
-97.16721
176.55549
142.53898
3.46881
25.88615
-109.80117
-94.698
145.22324
-146.54551
19.88304
41.89329
-110.86398
-97.58672
55.94329
21.22536
-89.81004
-104.36619
76.24479
34.74995
-46.13809
-135.4035
56.25432
127.96837
-168.64995
45.69512
145.67559
48.10937
69.11907
123.44945
60.16666
-169.2544
102.46491
123.56222
-146.81987
-121.08067
75.99355
82.28118
-113.13418
-92.0007
1.07191
73.9715
-90.58583
-71.5708
94.69578
-0.45738
86.06666
-74.7273
-56.1656
106.87911
-20.45923
98.22327
-129.00674
-64.32769
-47.36571
120.06905
-33.98175
-170.90086
-179.94679
-61.31986
-46.37449
113.38884
137.75102
148.31238
-158.85309
-64.01846
-51.87306
16.89518
44.55943
-136.11925
-71.72167
-61.93701
36.47221
61.27008
-81.99169
-73.58693
93.62623
126.7515
-91.73477
-118.80062
147.87534
-155.68623
58.51254
-162.69706
81.80439
-172.93457
163.94489
161.76198
-151.54498
-114.76789
113.50199
-173.38143
-100.78253
-77.71544
76.79546
64.40877
-70.38267
-48.04962
-48.71911
99.06499
-44.2828
-17.60098
177.42256
92.41537
-93.61791
-19.48535
9.40241
113.93897
137.74764
-138.29412
-167.43783
-1.72756
23.95783
106.05098
-145.22793
127.44076
162.52879
2.23726
24.46001
-127.34454
-159.68236
118.98492
140.21126
-5.22804
12.78522
165.64276
131.08917
152.00742
-21.02601
-8.45711
40.10135
-18.38625
-40.03209
-34.14018
44.439
76.55612
-67.96505
-66.62436
-148.09154
-108.19418
-165.09887
142.84925
-92.24406
-69.50207
163.79682
47.89799
-61.2975
-35.53065
155.43758
176.83178
-22.84678
11.73598
-3.3196
171.31284
21.85842
52.77724
-165.65889
-6.74372
26.46689
53.56941
73.98679
-161.2871
24.17958
-153.43457
17.63735
67.94185
82.31535
114.83056
138.06023
-155.05655
133.73382
70.83378
81.86791
156.39567
-91.53431
-125.83388
150.07541
63.97344
72.8849
-75.28143
-39.51578
172.29395
45.57119
52.64016
23.47207
164.61258
10.14642
14.6966
-173.58798
-8.55087
-27.32996
-127.9673
135.33077
177.79533
9.34103
-90.25521
-161.03274
-172.49771
-121.0607
-125.23016
-17.94515
14.98745
89.5467
75.95002
40.61675
67.61532
-22.55907
-34.73596
77.59183
93.90104
66.87055
-68.41137
-80.46048
96.08373
109.06257
-170.34248
-149.22993
-113.20151
70.0871
105.06583
116.72678
-158.71675
-137.56096
-146.4953
-124.87725
106.27606
114.139
31.45984
-64.07624
-132.25541
-110.01392
99.15832
103.02972
1.78694
-29.72348
64.26033
84.81353
85.82105
35.13968
69.85602
58.43888
53.48731
102.83109
-124.10255
-6.59986
-20.06383
-98.77604
166.35627
-61.32267
-66.91984
-159.15575
-123.00589
-95.22033
60.25369
-95.00998
-106.26232
60.73212
-176.87644
-127.61671
-47.19276
139.20169
126.34165
106.77876
123.86238
80.63106
-108.86157
90.79527
131.65601
170.94642
115.46789
-100.78648
-151.3878
-128.3956
160.79262
-150.17287
-128.93387
-136.27824
-160.07642
-114.76947
159.20878
-175.6498
69.96506
-123.57305
-102.44378
97.82393
128.65058
130.06439
-111.70081
4.17828
-91.14964
104.47161
101.66099
67.83163
-100.72241
76.87891
70.01152
-80.45353
96.66072
21.98864
11.08914
-89.67535
167.67126
-37.33469
-69.63501
-120.86954
101.71163
-78.52741
-106.33201
-59.28545
-64.78736
-147.66918
-166.19199
-40.23716
-3.98389
149.66171
97.34946
30.14267
61.69602
-62.89702
98.5304
80.46799
96.63272
-75.27198
100.67225
-98.77971
-91.86834
-85.56707
-57.6303
107.01837
175.81488
-104.51774
-102.40903
142.30471
-68.88573
143.34901
144.5804
-164.00026
176.2188
171.24228
-93.22264
169.64329
118.01597
109.95116
-165.6131
-91.14946
87.00426
77.22345
-116.37851
131.25224
42.217
19.96219
-158.64534
-169.23636
-33.24716
-54.51003
-145.73443
-93.48662
-87.4589
-106.49147
-63.23807
99.43745
-144.41602
-65.0703
-43.92883
20.68156
-54.01043
132.03508
64.379
81.31156
95.8379
76.50295
101.04547
115.19421
-10.70169
-33.22469
139.4411
-167.77429
109.34727
-43.85604
-22.93267
-124.68294
-100.17812
121.93228
-33.9692
-13.06553
131.16537
-125.71806
-166.3895
-24.86452
-5.0448
129.43169
122.72427
109.95363
-27.73659
96.16308
86.76914
74.79923
129.2459
156.70018
35.96058
4.19575
-162.73135
-134.26038
-42.44529
-63.57844
-100.63027
-10.74528
-93.77866
135.85593
-27.70798
-35.68711
1.46986
-167.49851
6.64125
40.13673
149.98166
139.47643
77.91981
92.27713
179.62467
-11.94133
113.94341
132.28603
-179.60104
-22.30349
-154.37358
-113.38145
150.30695
-53.056
-153.9851
-92.05046
-86.25634
176.94672
-150.02687
-42.70601
-109.24154
-83.55733
-124.37948
-89.31219
-154.02769
-160.45774
-89.31987
-92.95695
-61.59752
-133.70586
-54.00669
-133.95246
80.65306
61.24793
-109.30303
-147.46611
15.5142
-21.06882
-153.10751
-50.47934
-56.38886
-111.8697
-88.82406
-80.2231
-60.4823
-115.70996
-47.37211
-20.63065
-152.8433
-93.71373
28.76486
54.38309
-71.69093
130.08691
87.02625
98.12162
92.78481
74.55621
121.13392
137.97386
-78.47193
-56.90391
-131.59803
-113.36205
16.22712
37.59096
-68.08056
-90.20742
-89.3155
24.97801
45.54728
-121.72631
30.8252
-84.83108
-87.53913
50.93108
164.90893
35.47587
64.04063
-92.00268
-103.3467
171.16973
-28.60217
-150.64756
53.74426
-146.8156
152.64128
34.91909