# vtk DataFile Version 3.0
Mesh2HRTF Files
ASCII
DATASET POLYDATA
POINTS 1208 float
 0.0021  0.0865 -0.0122
 0.0015  0.0873 -0.0034
 0.0097  0.0868 -0.0039
 0.0103  0.0859 -0.0125
 0.0067  0.0173 -0.0854
-0.0024  0.0177  0.0856
-0.0082  0.0870  0.0048
-0.0025  0.0361  0.0796
 0.0005  0.0044 -0.0874
 0.0077  0.0261 -0.0831
-0.0105  0.0129  0.0858
 0.0016  0.0848 -0.0212
 0.0105  0.0842 -0.0209
-0.0095  0.0860  0.0129
-0.0005  0.0444  0.0754
 0.0033  0.0821 -0.0298
 0.0117  0.0818 -0.0283
 0.0070  0.0354 -0.0796
 0.0005  0.0518  0.0705
-0.0461  0.0047 -0.0741
 0.0081  0.0786 -0.0374
-0.0105  0.0842  0.0212
 0.0024  0.0586  0.0649
-0.0000  0.0747 -0.0454
 0.0103  0.0737 -0.0458
-0.0047  0.0642  0.0592
 0.0055  0.0644  0.0589
 0.0030  0.0697 -0.0527
 0.0124  0.0682 -0.0533
-0.0018  0.0703  0.0519
 0.0043  0.0450 -0.0749
 0.0047  0.0632 -0.0601
-0.0111  0.0815  0.0295
-0.0045  0.0755  0.0438
 0.0040  0.0749  0.0450
 0.0058  0.0549 -0.0677
-0.0113  0.0781  0.0377
-0.0026  0.0791  0.0371
 0.0068  0.0791  0.0365
-0.0040  0.0587 -0.0648
 0.0149  0.0486 -0.0711
-0.0031  0.0824  0.0289
 0.0040  0.0828  0.0273
-0.0120  0.0736  0.0456
-0.0031  0.0651 -0.0583
-0.0024  0.0849  0.0207
 0.0057  0.0848  0.0203
-0.0129  0.0683  0.0530
-0.0023 -0.0018  0.0873
-0.0068  0.0697 -0.0524
-0.0068  0.0576  0.0655
-0.0035  0.0788 -0.0376
-0.0011  0.0865  0.0127
 0.0072  0.0862  0.0126
-0.0080  0.0503  0.0711
-0.0054  0.0823 -0.0290
-0.0088  0.0424  0.0760
-0.0074  0.0849 -0.0195
 0.0002  0.0874  0.0047
 0.0086  0.0870  0.0045
 0.0067  0.0089 -0.0868
-0.0116  0.0333  0.0800
-0.0107  0.0230  0.0836
-0.0048  0.0866 -0.0102
 0.0160  0.0557 -0.0655
-0.0066  0.0871 -0.0030
 0.0002 -0.0382 -0.0786
 0.0117  0.0815  0.0294
 0.0158  0.0399 -0.0761
 0.0140  0.0836  0.0213
-0.0187  0.0827  0.0214
 0.0161  0.0306 -0.0803
 0.0157  0.0850  0.0130
-0.0192  0.0799  0.0298
-0.0049  0.0509 -0.0709
 0.0170  0.0857  0.0044
-0.0194  0.0762  0.0381
-0.0203  0.0715  0.0460
 0.0179  0.0855 -0.0042
 0.0055  0.0308  0.0816
-0.0115  0.0628 -0.0597
 0.0185  0.0845 -0.0129
-0.0150  0.0621  0.0596
 0.0188  0.0826 -0.0215
-0.0107  0.0741 -0.0451
 0.0190  0.0797 -0.0303
-0.0162  0.0552  0.0658
 0.0186  0.0761 -0.0387
 0.0119  0.0578  0.0646
 0.0203  0.0713 -0.0463
-0.0147  0.0780 -0.0368
-0.0166  0.0480  0.0711
 0.0095  0.0694  0.0523
 0.0139  0.0620 -0.0600
 0.0131  0.0738  0.0451
-0.0135  0.0819 -0.0273
-0.0166  0.0409  0.0754
 0.0222  0.0818  0.0214
 0.0239  0.0831  0.0130
-0.0023  0.0079  0.0870
-0.0231 -0.0138 -0.0831
-0.0223  0.0357  0.0766
 0.0252  0.0837  0.0043
-0.0027  0.0273  0.0830
-0.0124  0.0856 -0.0122
 0.0261  0.0834 -0.0045
-0.0149  0.0860 -0.0040
-0.0017  0.0216 -0.0848
 0.0265  0.0822 -0.0133
 0.0052  0.0385  0.0783
 0.0267  0.0802 -0.0222
 0.0094  0.0449  0.0745
 0.0271  0.0771 -0.0308
 0.0084  0.0526  0.0693
 0.0284  0.0730 -0.0387
 0.0001  0.0296 -0.0823
-0.0183  0.0179  0.0835
 0.0158  0.0627  0.0588
 0.0219  0.0657 -0.0534
 0.0198  0.0672  0.0524
 0.0231  0.0594 -0.0599
 0.0098 -0.0370 -0.0786
 0.0236  0.0522 -0.0660
 0.0163  0.0774  0.0373
-0.0166  0.0858  0.0044
 0.0197  0.0798  0.0296
 0.0157  0.0210 -0.0834
-0.0179  0.0846  0.0129
 0.0333  0.0808  0.0042
 0.0341  0.0804 -0.0046
-0.0277  0.0740  0.0375
-0.0146  0.0545 -0.0667
-0.0283  0.0698  0.0443
 0.0345  0.0792 -0.0134
-0.0242  0.0655  0.0526
 0.0346  0.0771 -0.0222
-0.0165  0.0676 -0.0529
 0.0351  0.0739 -0.0306
 0.0162  0.0495  0.0703
 0.0198 -0.0348 -0.0777
 0.0209  0.0548  0.0648
 0.0301  0.0679 -0.0461
 0.0256  0.0596  0.0587
 0.0312  0.0621 -0.0531
-0.0250  0.0586  0.0599
-0.0211  0.0716 -0.0457
 0.0220  0.0718  0.0448
 0.0246 -0.0180 -0.0820
 0.0248  0.0752  0.0370
 0.0262  0.0434 -0.0713
 0.0278  0.0775  0.0293
-0.0245  0.0438  0.0715
 0.0302  0.0792  0.0212
-0.0215  0.0794 -0.0296
-0.0170  0.0833 -0.0203
 0.0320  0.0804  0.0128
 0.0060  0.0125  0.0864
-0.0206  0.0840 -0.0127
 0.0422  0.0754 -0.0130
 0.0424  0.0734 -0.0212
 0.0129  0.0355  0.0789
-0.0232  0.0842 -0.0044
 0.0425  0.0708 -0.0285
-0.0249  0.0837  0.0042
 0.0384  0.0689 -0.0378
 0.0295  0.0512  0.0645
 0.0394  0.0632 -0.0459
-0.0261  0.0825  0.0128
-0.0033  0.0363 -0.0795
 0.0303  0.0639  0.0514
 0.0316  0.0558 -0.0594
 0.0296  0.0700  0.0432
 0.0315  0.0495 -0.0649
 0.0327  0.0723  0.0365
-0.0069  0.0430 -0.0758
 0.0356  0.0744  0.0290
 0.0252  0.0341 -0.0765
 0.0379  0.0759  0.0210
-0.0269  0.0804  0.0214
-0.0273  0.0775  0.0297
 0.0398  0.0769  0.0126
-0.0206  0.0605 -0.0596
-0.0341  0.0602  0.0535
 0.0411  0.0771  0.0041
-0.0262  0.0643 -0.0531
-0.0252  0.0513  0.0661
 0.0419  0.0767 -0.0046
-0.0255  0.0745 -0.0379
 0.0482  0.0664 -0.0302
 0.0465  0.0631 -0.0386
 0.0244  0.0462  0.0701
-0.0468 -0.0737  0.0046
 0.0510  0.0130 -0.0697
 0.0349  0.0549  0.0584
 0.0400  0.0570 -0.0529
-0.0255  0.0808 -0.0215
 0.0393  0.0506 -0.0596
 0.0366  0.0656  0.0448
 0.0370  0.0437 -0.0661
 0.0401  0.0683  0.0370
-0.0288  0.0814 -0.0132
 0.0430  0.0704  0.0290
-0.0193  0.0275  0.0807
 0.0453  0.0718  0.0208
-0.0313  0.0815 -0.0047
 0.0241  0.0244 -0.0804
 0.0472  0.0726  0.0124
-0.0330  0.0809  0.0040
-0.0341  0.0795  0.0128
 0.0485  0.0727  0.0039
 0.0058  0.0220  0.0844
-0.0348  0.0773  0.0214
 0.0492  0.0722 -0.0047
 0.0135  0.0266  0.0822
-0.0151  0.0454 -0.0731
 0.0494  0.0709 -0.0132
-0.0351  0.0743  0.0298
 0.0492  0.0689 -0.0216
 0.0192  0.0407  0.0750
 0.0488  0.0565 -0.0455
 0.0478  0.0505 -0.0531
-0.0352  0.0705  0.0378
 0.0402  0.0579  0.0518
-0.0347  0.0657  0.0460
 0.0438  0.0613  0.0444
-0.0313  0.0674 -0.0459
 0.0471  0.0641  0.0363
 0.0358  0.0353 -0.0715
 0.0499  0.0658  0.0284
-0.0334  0.0460  0.0664
 0.0523  0.0670  0.0204
 0.0380  0.0198 -0.0763
-0.0316  0.0383  0.0719
 0.0541  0.0676  0.0120
-0.0300  0.0765 -0.0300
-0.0337  0.0777 -0.0217
 0.0554  0.0676  0.0035
-0.0289  0.0304  0.0766
 0.0150  0.0120 -0.0854
 0.0560  0.0670 -0.0050
-0.0368  0.0782 -0.0133
-0.0391  0.0780 -0.0047
 0.0561  0.0657 -0.0135
-0.0408  0.0773  0.0041
 0.0556  0.0638 -0.0218
 0.0288  0.0358  0.0744
 0.0547  0.0613 -0.0298
 0.0320  0.0431  0.0690
 0.0536  0.0582 -0.0371
 0.0378  0.0460  0.0640
 0.0460  0.0444 -0.0597
 0.0437  0.0386 -0.0652
 0.0502  0.0577  0.0423
 0.0534  0.0593  0.0355
-0.0088  0.0277 -0.0825
 0.0563  0.0607  0.0279
 0.0326  0.0269 -0.0765
 0.0588  0.0616  0.0199
-0.0418  0.0757  0.0128
-0.0424  0.0734  0.0215
 0.0606  0.0620  0.0117
-0.0425  0.0702  0.0299
-0.0237  0.0470 -0.0698
 0.0618  0.0619  0.0032
-0.0423  0.0662  0.0382
-0.0242  0.0539 -0.0644
 0.0622  0.0612 -0.0054
-0.0420  0.0612  0.0461
-0.0301  0.0569 -0.0592
 0.0621  0.0599 -0.0139
 0.0211  0.0313  0.0789
 0.0614  0.0580 -0.0224
-0.0343  0.0533  0.0601
 0.0602  0.0555 -0.0306
-0.0380  0.0730 -0.0295
 0.0582  0.0523 -0.0389
-0.0415  0.0739 -0.0214
 0.0561  0.0482 -0.0467
 0.0437  0.0488  0.0579
-0.0320  0.0175  0.0794
 0.0494  0.0513  0.0506
-0.0443  0.0741 -0.0131
-0.0262  0.0223  0.0803
 0.0622  0.0547  0.0277
 0.0646  0.0554  0.0197
-0.0466  0.0738 -0.0046
-0.0111  0.0182 -0.0848
 0.0664  0.0557  0.0113
-0.0482  0.0729  0.0041
 0.0235  0.0141 -0.0831
 0.0675  0.0555  0.0028
 0.0139  0.0170  0.0847
-0.0491  0.0712  0.0128
 0.0679  0.0548 -0.0058
-0.0148  0.0351 -0.0787
-0.0495  0.0687  0.0214
 0.0676  0.0535 -0.0144
 0.0287  0.0259  0.0785
 0.0667  0.0517 -0.0229
-0.0496  0.0655  0.0297
 0.0651  0.0492 -0.0313
 0.0378  0.0367  0.0698
 0.0633  0.0457 -0.0394
 0.0447  0.0393  0.0641
-0.0494  0.0616  0.0375
 0.0513  0.0413  0.0575
 0.0544  0.0425 -0.0536
-0.0492  0.0572  0.0443
 0.0516  0.0367 -0.0603
 0.0553  0.0518  0.0436
 0.0473  0.0310 -0.0667
 0.0591  0.0536  0.0355
 0.0061  0.0031  0.0872
-0.0440  0.0540  0.0528
 0.0312  0.0173 -0.0799
-0.0362  0.0596 -0.0527
 0.0716  0.0489  0.0110
 0.0727  0.0486  0.0024
-0.0426  0.0468  0.0602
-0.0345  0.0709 -0.0378
 0.0729  0.0479 -0.0062
 0.0210  0.0220  0.0820
-0.0515  0.0694 -0.0131
 0.0725  0.0466 -0.0148
-0.0405 -0.0416 -0.0653
 0.0714  0.0447 -0.0231
 0.0367  0.0277  0.0744
 0.0699  0.0424 -0.0309
-0.0536  0.0689 -0.0046
 0.0682  0.0394 -0.0379
 0.0510  0.0319  0.0635
 0.0629  0.0392 -0.0464
-0.0257  0.0130  0.0825
 0.0598  0.0338 -0.0541
 0.0578  0.0423  0.0502
-0.0551  0.0678  0.0041
 0.0606  0.0470  0.0419
-0.0185  0.0078  0.0851
 0.0643  0.0476  0.0351
 0.0419  0.0260 -0.0722
 0.0674  0.0483  0.0275
-0.0560  0.0659  0.0128
 0.0699  0.0488  0.0194
-0.0562  0.0634  0.0214
-0.0235  0.0387 -0.0748
-0.0561  0.0600  0.0297
 0.0069  0.0002 -0.0872
 0.0772  0.0404 -0.0067
 0.0767  0.0392 -0.0152
-0.0557  0.0559  0.0376
 0.0754  0.0374 -0.0235
-0.0318  0.0490 -0.0651
 0.0735  0.0352 -0.0316
 0.0440  0.0299  0.0694
 0.0707  0.0325 -0.0399
-0.0543  0.0509  0.0457
 0.0673  0.0292 -0.0476
 0.0575  0.0325  0.0573
-0.0387  0.0514 -0.0593
-0.0517  0.0458  0.0534
 0.0558  0.0283 -0.0610
 0.0644  0.0400  0.0436
 0.0511  0.0221 -0.0674
 0.0687  0.0406  0.0356
-0.0419  0.0621 -0.0451
 0.0720  0.0413  0.0274
 0.0448  0.0166 -0.0732
 0.0745  0.0416  0.0191
-0.0409  0.0394  0.0664
-0.0419  0.0677 -0.0361
 0.0762  0.0416  0.0106
-0.0383  0.0318  0.0718
-0.0454  0.0688 -0.0290
 0.0771  0.0413  0.0020
 0.0350  0.0184  0.0780
-0.0487  0.0694 -0.0213
 0.0786  0.0298 -0.0241
 0.0763  0.0276 -0.0324
 0.0495  0.0236  0.0681
 0.0735  0.0247 -0.0404
 0.0560  0.0232  0.0630
-0.0351  0.0244  0.0762
-0.0616  0.0620  0.0039
 0.0640  0.0243 -0.0544
 0.0638  0.0320  0.0506
 0.0599  0.0195 -0.0606
 0.0686  0.0329  0.0430
 0.0563  0.0144 -0.0653
 0.0727  0.0338  0.0348
-0.0622  0.0601  0.0126
 0.0759  0.0341  0.0268
-0.0251  0.0292 -0.0785
 0.0783  0.0342  0.0185
-0.0107  0.0026  0.0867
-0.0624  0.0574  0.0212
 0.0799  0.0340  0.0101
-0.0620  0.0539  0.0296
 0.0223  0.0028 -0.0845
 0.0808  0.0335  0.0015
-0.0319  0.0410 -0.0703
-0.0613  0.0494  0.0378
 0.0808  0.0327 -0.0071
-0.0605  0.0437  0.0454
-0.0454  0.0531 -0.0526
 0.0800  0.0314 -0.0157
-0.0499  0.0390  0.0602
-0.0481  0.0625 -0.0377
 0.0763  0.0172 -0.0391
 0.0711  0.0185 -0.0473
 0.0626  0.0226  0.0568
 0.0667  0.0142 -0.0548
 0.0688  0.0218  0.0493
-0.0438  0.0242  0.0716
[...]
CELL_DATA 2412

SCALARS 20log(pressure/1)-source_1 float 1
LOOKUP_TABLE default
7.03811
4.0669
-20.24366
-20.93018
1.54496
1.49979
-0.16659
3.36249
-26.89174
-2.45797
-3.71191
-22.64973
-22.06034
-5.7764
-36.24167
8.35215
-16.56128
-25.67477
-9.02897
-15.26081
-14.66638
-10.57371
-11.50789
-13.26324
12.63566
-12.97211
-13.85379
-26.30563
-10.51886
-15.29318
-25.38976
-8.85124
-8.22374
-22.0846
-23.81045
-6.20268
-5.44836
14.37406
-3.10783
-2.16342
-24.76621
-23.96384
-24.76711
0.56801
1.482
-25.5365
8.2224
5.16937
-23.04675
5.34596
6.02725
-22.09718
-25.49293
-26.3516
1.68789
11.61877
8.08565
-0.00723
-21.21558
-20.12555
-27.22292
-17.3698
-2.53555
-33.96699
-5.59632
-3.72921
-19.35522
-3.67772
-3.43269
-17.7579
-5.85907
-6.64133
-1.00555
-0.91739
-18.01507
-16.79818
-8.31463
-9.21927
1.83785
1.24138
-15.46206
-14.75154
-10.78299
-11.61825
3.34463
1.62996
-13.18557
-12.45854
-12.87283
-13.81314
1.73841
-0.14294
-11.00399
-21.47429
-14.98092
-1.13899
-2.69382
-20.39493
-8.07406
-3.9967
-5.42464
-17.14387
-6.46219
-6.66461
-7.7351
-5.48498
-16.95837
-8.97224
-10.2274
-15.25003
-18.44217
-11.43092
-12.5079
-18.96574
-12.73789
-13.69574
-2.93402
-11.43524
-11.04222
-1.62285
-15.90749
-9.0841
-34.57977
-21.36101
-25.23797
-3.33877
-3.59386
-24.65946
-23.64962
-24.62715
8.0038
-1.84797
-2.49864
5.0883
-23.87805
-23.22767
-24.573
-1.37274
-2.50847
-25.51173
3.93301
1.58719
-22.09957
-2.23717
-3.5722
-21.41278
-26.39435
-0.274
-4.0065
-5.3231
-1.94081
-19.80432
-6.17474
-7.36089
-18.65619
-18.23052
-8.42294
-9.4875
-16.50427
-20.19784
-10.53866
-11.72556
-3.76122
-14.90122
-12.69492
-5.00126
-13.67866
-13.38618
-6.66535
-14.55303
-12.09877
-26.60655
-15.69858
-16.53764
-34.21102
-8.795
-17.78045
-18.64596
-7.23846
-7.08635
-19.50893
-20.57729
-5.21237
-5.23611
-7.62067
-16.66901
-9.15519
-4.77336
-5.647
-23.08638
-10.06749
-15.55486
-14.66238
-5.38424
-6.3964
-11.64329
-21.46571
-12.56254
-6.60839
-7.64951
-20.3271
-13.17426
-8.23256
-9.27512
-13.6737
-34.53936
-10.18357
-11.34085
-17.24543
-17.04802
-12.22017
-10.38523
-15.89111
-15.67679
-15.7788
-13.74928
-14.55257
-8.826
-14.69674
-15.65755
-8.17772
-11.92633
-16.60617
-16.94519
-10.17063
-9.97319
-17.63617
-6.22412
-8.46869
-8.45082
-5.46816
-18.81107
-6.93402
-7.12201
-19.48074
-2.73183
-28.4969
-5.71547
-6.09976
-20.67955
-21.21466
-37.55302
2.88383
-4.90171
-5.54331
-25.9785
-23.79471
-21.90523
-8.89499
-9.72274
-22.72556
-20.18224
-10.14382
-11.01816
-18.38116
6.39162
-11.83511
-35.10216
5.45055
-18.03721
-34.11069
-13.37513
-16.75282
-2.88843
-14.21023
-15.3182
-4.31526
-14.35592
-16.00336
-19.85193
-13.02084
-12.78041
-5.49396
-17.4924
-11.298
-11.1961
-18.64141
-6.65084
-9.88036
-10.04462
-18.78355
-7.8961
-8.81181
-9.10323
-8.85531
-10.13408
-22.36563
-8.00651
-8.42919
-11.0171
-12.37303
-23.16513
-12.84329
-7.55097
-8.12149
-14.62347
-11.33385
-11.02698
-15.74043
-7.54629
-8.24692
-16.6304
-23.09813
-9.41406
-34.34845
-8.00993
-8.80081
-22.19352
-17.62694
-12.91891
-13.62243
-17.88706
-18.45866
-14.11162
-15.32143
-33.06061
-16.67889
-15.88476
-6.06307
-15.66238
-19.47859
-20.51301
-16.96921
-4.49016
-13.50209
-17.72956
-18.75172
-12.52024
-12.64592
-19.57619
-20.32667
-11.58211
-11.74159
-20.87242
-2.22923
-10.74668
-11.03619
-20.31745
-0.09898
-0.55112
-10.16965
-10.58108
1.49675
0.4026
1.50987
-0.13951
-9.88967
-10.4104
-0.33004
-1.98548
-18.63054
-17.77108
-9.936
-10.5767
-9.37714
-10.38219
-17.68535
-11.31413
-10.33893
-11.05157
-12.3211
-15.28291
-13.22772
-11.03778
-11.82191
-14.06208
-13.8902
-11.9876
-12.82066
-13.62908
-19.34482
-14.86989
-16.99436
-16.03396
-15.66617
-17.52979
-18.58225
-15.01679
-15.28747
-19.14994
-12.3343
-14.02694
-14.15679
-16.84371
-9.23167
-13.11397
-13.34491
-18.69266
-21.98853
-12.51421
-12.85205
-7.94923
-22.58447
-37.53172
-12.16071
-12.57886
-21.329
-37.49424
-4.68393
-3.16178
-12.02224
-12.51765
-3.69424
-24.80224
-2.4157
-3.31605
-12.11976
-12.69252
-23.9601
-23.75356
-2.62583
-3.79873
-12.45935
-13.09489
-25.53121
-3.76532
-5.02191
-13.01831
-13.69138
-21.88463
-21.20776
-13.74338
-14.41677
-20.22931
-20.09597
-14.67209
-15.33854
-18.9785
-18.90897
-15.86511
-5.48556
-17.96894
-6.68587
-20.54061
-20.0711
-15.43703
-15.57413
-20.83911
-19.8911
-14.66332
-14.97415
-7.42765
-8.51328
-14.25917
-14.62721
-16.07229
-15.80497
-14.76037
-14.04959
-14.4718
-15.67331
-14.75397
-16.45483
-24.27184
-14.00287
-14.47524
-12.22586
-17.84954
-25.04925
-11.03957
-14.12523
-14.65901
-31.23323
-19.6564
-31.44222
-8.07039
-14.42293
-15.0084
-6.62173
-22.16463
-6.93736
-14.88996
-15.52879
-21.16046
-29.46594
-15.51733
-16.21049
-5.76574
-25.45043
-16.31091
-17.0447
-20.11449
-6.33068
-17.03008
-17.62015
-22.17809
-18.05029
-17.83647
-18.96889
-17.31425
-17.41498
-19.27571
-5.45642
-16.54739
-16.54344
-22.44252
-6.2482
-16.00237
-16.34557
-5.75635
-6.70773
-23.98791
-15.86621
-16.25959
-22.98933
-6.62011
-24.46408
-7.65437
-15.86597
-16.31072
-21.47951
-7.90702
-8.94454
-9.42573
-16.00835
-16.4963
-10.43214
-23.97437
-11.06814
-12.02571
-16.27143
-16.8175
-22.97656
-22.98112
-17.3302
-16.6892
-17.28852
-22.15179
-22.26694
-17.2574
-17.90051
-20.84317
-12.80633
-17.95374
-18.63799
-13.745
-20.28141
-18.93251
-19.63127
-19.50104
-19.62003
-19.92771
-13.74391
-18.99902
-18.27774
-19.27391
-20.28914
-11.11437
-17.46494
-20.66521
-21.62382
-16.76655
-16.9754
-21.77601
-22.22259
-16.33073
-16.58324
-26.39479
-26.42236
-19.99842
-25.8287
-17.6204
-18.04851
-25.70255
-9.74903
-26.14164
-9.85394
-17.76536
-18.22918
-21.63826
-8.62155
-8.99474
-26.70536
-18.02243
-18.52718
-23.91677
-23.91798
-8.08994
-18.39572
-18.93137
-23.54123
-8.66909
-18.87922
-19.43071
-23.12594
-22.87854
-19.49216
-20.10603
-8.02566
-21.458
-20.45901
-8.74388
-21.00076
-24.59107
-24.63148
-20.87873
-8.3749
-19.147
-21.15344
-22.12202
-18.72607
-18.94752
-22.34534
-9.19834
-18.15886
-18.46182
-23.64584
-9.10212
-17.8351
-18.19951
-9.9853
-23.50992
-17.66262
-18.03384
-27.17846
-23.73616
-10.13347
-17.58835
-17.98298
-11.03131
-20.03806
-11.36312
-12.24491
-19.71686
-20.2062
-19.38314
-12.731
-13.59688
-20.06972
-20.60464
-17.72933
-14.26408
-20.52238
-21.09637
-15.15984
-22.23202
-21.04976
-21.66523
-21.62924
-16.85456
-21.39326
-21.80379
-16.07967
-21.23636
-21.91473
-22.82679
-20.82971
-14.71864
-22.93399
-17.55212
-11.37644
-19.98018
-11.51065
-23.09353
-19.59878
-19.92235
-23.27115
-22.47179
-19.47228
-19.76295
-10.54456
-10.96739
-19.32343
-19.65875
-24.28089
-10.26069
-10.82707
-19.26726
-19.64233
-26.18889
-25.41708
-10.32571
-10.98806
-19.31534
-19.72248
-24.68637
-10.69453
-11.41807
-23.42082
-19.45776
-19.91087
-11.32425
-23.82577
-22.07736
-22.60106
-23.29612
-23.47588
-22.50326
-23.07355
-22.86907
-23.1086
-23.17388
-23.73331
-22.69785
-12.10376
-23.91865
-22.01064
-12.18247
-21.13266
-12.98655
-23.70696
-20.95233
-21.65341
-23.82716
-24.59335
-21.049
-21.39939
-24.97051
-24.92413
-20.89377
-21.23804
-24.00263
-26.11444
-20.83517
-21.19068
-13.21579
-25.33861
-14.04848
-20.84113
-21.21786
-19.49643
-14.41879
-15.32177
-18.7942
-20.92624
-21.32389
-15.80937
-16.75854
-16.94821
-26.56681
-21.09624
-21.5279
-17.11858
-17.72596
-26.91609
-16.09665
-21.34941
-21.81607
-18.15468
-19.29651
-13.77588
-21.68472
-22.17989
-24.38564
-19.82946
-24.71027
-12.65614
-12.59485
-23.06554
-20.96051
-24.67814
-22.79192
-23.22241
-24.73509
-25.46404
-22.77439
-23.01644
-25.48716
-12.31298
-22.43649
-22.76304
-12.83066
-12.43803
-22.30502
-22.68388
-13.04576
-12.8005
-22.31288
-22.68632
-13.45849
-13.37851
-25.89309
-22.36846
-22.75014
-14.07253
-22.16984
-26.36188
-14.11633
-22.4773
-22.88075
-14.86066
-25.74617
-21.3295
-21.26938
-22.66534
-23.08758
-24.85112
-24.8074
-15.02735
-15.83818
-22.90462
-23.34345
-24.06019
-20.59913
-16.16383
-23.19063
-23.64251
-17.03478
-19.09625
-23.5192
-23.99161
-17.45444
-24.21363
-23.94082
-24.46875
-24.79409
-18.32196
-26.48169
-18.21246
-18.7871
-24.054
-19.58773
-26.37788
-23.73898
-24.04087
-26.00755
-16.22057
-23.75899
-24.09326
-20.05975
-26.90897
-23.81335
-24.18385
-15.47695
-26.89042
-20.92397
-23.90633
-24.28516
-13.69936
-21.45671
-22.44701
-12.89213
-24.04005
-24.43033
-13.17412
-22.91724
-23.81455
-12.46456
-24.21137
-24.61632
-12.85699
-34.45784
-14.74443
-15.35084
-24.43898
-24.87496
-26.38879
-27.23872
-15.27198
-24.71821
-25.18656
-15.91479
-27.29953
-25.05114
-25.5568
-15.94311
-16.627
-25.4369
-25.98576
-16.77413
-24.7918
-25.56636
-25.83312
-24.57487
-24.97498
-25.82931
-26.53924
-25.00677
-25.42591
-27.41272
-27.81325
-25.13657
-25.53934
-27.62239
-17.5063
-25.28373
-25.64593
-17.8058
-18.60924
-27.5014
-25.40001
-25.75062
-19.11811
-20.00366
-27.50815
-18.39178
-25.51763
-25.86782
-20.49559
-17.74016
-21.06057
-15.64589
-25.69001
-26.0828
-21.57647
-25.66383
-15.12459
-15.35953
-25.92287
-26.32786
-25.1912
-25.50131
-23.0042
-26.18829
-26.61239
-25.19894
-25.57422
-26.48049
-26.92759
-24.63234
-14.46045
-26.77042
-27.23464
-14.80531
-25.90695
-27.1698
-27.60017
-26.18842
-24.30052
-27.63867
-14.1804
-14.64054
-25.14226
-14.17626
-27.25103
-24.97637
-25.43844
-27.09889
-27.7406
-26.66556
-26.99844
-14.69741
-25.26756
-14.37623
-26.79785
-27.15507
-14.94344
-25.52784
-26.26722
-28.19302
-26.94774
-27.34882
-17.65568
-18.25615
-27.71858
-23.08425
-27.14686
-27.52665
-28.13049
-18.38771
-19.03387
-20.80194
-27.31848
-27.70036
-19.3257
-20.08916
-20.19477
-27.51813
-27.9168
-20.36507
-20.66143
-27.75043
-28.16686
-21.82297
-26.1962
-28.03297
-28.52069
-26.33002
-19.70578
-28.69181
-19.38286
-21.37195
-26.6156
-18.02524
-28.35254
-26.57003
-21.78492
-28.19556
-28.84009
-17.60848
-26.42387
-28.61507
-22.54464
-26.35408
-26.69105
-16.62977
-23.97527
-26.53747
-26.85244
-16.03057
-16.3823
-28.39471
-28.79208
-25.81662
-26.61117
-15.92571
-28.49929
-28.58102
-28.97413
-26.41615
-16.3393
-27.78194
-25.37762
-28.76366
-29.17599
-15.99083
-16.4773
-16.22067
-28.9697
-29.40817
-16.75005
-26.9068
-29.21355
-29.66643
-27.21018
-27.65769
-29.48747
-29.96099
-27.41221
-27.91305
-29.45159
-29.64988
-27.86939
-16.58516
-29.51915
-30.01375
-17.14079
-27.05279
-29.82678
-17.06403
-27.04167
-27.9155
-17.63974
-29.23036
-27.59576
-28.03275
-29.08827
-23.24177
-27.78672
-28.20164
-28.21905
-28.48436
-27.98612
-28.39819
-20.88316
-28.41953
-21.62937
-28.1915
-28.59605
-21.65145
-22.09117
-19.97743
-22.27231
-30.16645
-30.50734
-26.57712
-27.01546
-19.59638
-30.34969
-30.70783
-27.41153
-22.68534
-30.53471
-30.90654
-17.94932
-37.62347
-30.70423
-31.07111
-29.07179
-23.10263
-30.88479
-31.18047
-24.04628
-28.4721
-31.02854
-17.62837
-28.48735
-29.14557
-18.11115
-30.34997
-28.9424
-29.34743
-30.23114
-24.58588
-28.96265
-29.41998
-24.57218
-29.78782
-29.18426
-29.61608
-29.70314
-17.49155
-29.42566
-29.80867
-17.93543
-25.6684
-17.51618
-29.63843
-29.9866
-17.99994
-17.69254
-18.18573
-28.20909
-29.81795
-30.14247
-17.97617
-18.47965
-29.39304
-25.30797
-29.9849
-30.32126
-18.32099
-26.95727
-18.81685
-25.1623
-31.68104
-32.10658
-28.89382
-24.2865
-31.97829
-32.42476
-18.75584
-29.61632
-32.39661
-19.29395
-29.75093
-30.27462
-24.10489
-31.39485
-30.41867
-19.29373
-31.19866
-19.88889
-19.99586
-30.30673
-20.68542
-30.77186
-30.26223
-30.52403
-30.86297
-37.59314
-30.48075
-30.77737
-23.20248
-20.06013
-30.69265
-31.00536
-23.51132
-24.50507
-29.16552
-30.88729
-31.20728
-19.86936
-27.31306
-29.11213
-24.68638
-31.05471
-31.37897
-27.47044
-19.41111
-25.7408
-19.04134
-31.20428
-31.54565
-19.42603
-27.96272
-26.35642
-19.15136
-31.36296
-31.71849
-28.55488
-28.06928
-19.58708
-31.52015
-31.90302
-28.69851
-29.35437
-30.90678
-32.99011
-31.15775
-35.08927
-32.68623
-19.36451
-19.82937
-30.8073
-25.66911
-31.623
-30.8194
-31.39617
-31.53952
-32.2964
-31.21807
-31.67869
-31.42235
-19.64959
-31.59688
-32.05641
-20.116
-30.46266
-31.93328
-32.38159
-19.98032
-30.26272
-20.45957
-32.21896
-32.65435
-20.38676
-20.90737
-20.91741
-21.5014
-32.4566
-32.86599
-22.3707
-21.59744
-22.24934
-22.05441
-32.6257
-33.03897
-22.4261
-23.08295
-21.54038
-23.32003
-32.78358
-33.19944
-31.11388
-29.39882
-21.30244
-32.91569
-33.3249
-30.35112
-25.69752
-33.05537
-33.50024
-20.21463
-20.82757
-33.50516
-37.62988
-26.32578
-30.46107
-32.7794
-33.263
-20.3935
-32.32434
-32.38762
-20.89932
-32.5719
-33.03583
-27.15662
-31.45987
-33.08021
-33.49589
-30.84015
-20.64569
-33.45742
-33.81233
-27.95851
-21.12758
-30.7203
-33.72516
-34.00015
-28.01111
-27.30774
-29.97078
-26.81877
-33.87294
-34.09057
-20.9403
-21.39782
-27.10237
-26.65325
-34.05705
-34.3088
-21.24663
-21.70201
-26.91751
-28.36245
-34.22816
-34.44999
-21.58561
-22.0571
-27.77612
-34.33835
-34.56904
-25.91096
-22.00079
-34.4383
-34.75752
-22.48728
-30.40652
-34.25619
-34.42488
-30.99675
-25.81223
-34.20452
-22.47652
-22.96349
-31.77702
-23.05292
-33.16893
-31.96237
-23.5802
-22.57329
-23.92809
-34.2195
-34.45708
-36.03832
-22.31683
-34.47392
-34.66929
-37.54669
-23.92328
-21.80362
-34.65459
-34.82259
-24.26206
-25.16109
-21.64895
-25.39664
-34.81221
-34.99608
-20.39737
-28.40012
-23.9844
-24.48476
-34.90231
-35.11594
-28.45021
-24.04574
-24.45383
-24.96224
-34.99304
-35.20186
-23.78169
-24.58052
-24.89478
-35.03475
-35.23181
-23.11572
-30.93755
-35.00099
-35.18877
-31.07073
-31.75351
-35.26388
-37.72393
-31.81637
-32.60804
-31.30737
-34.48936
-32.87013
-24.8968
-34.29205
-34.51807
-25.58765
-32.74824
-34.05984
-34.25835
-32.89532
-33.89496
-33.55065
-22.94739
-33.85466
-34.22423
-25.86676
-30.1044
-22.22395
-35.65773
-36.18472
-26.37979
-22.16908
-26.43509
-27.29199
-35.97323
-36.50494
-22.06437
-27.26584
-21.87406
-22.26737
-36.18563
-36.71773
-22.14158
-29.41481
-22.58335
-28.39389
-36.29428
-36.81753
-30.1212
-22.47005
-22.92871
-36.30019
-36.79541
-28.20918
-22.81335
-36.17432
-36.59148
-23.27474
-32.19725
-35.38537
-35.46159
-33.47712
-23.18227
-35.2314
-35.35261
-23.63181
-33.6484
-35.02963
-35.15527
-33.89652
-34.38099
-34.73068
-23.5688
-34.41754
-34.71188
-24.00536
-33.5996
-34.69406
-34.95681
-33.27758
-26.07108
-34.95179
-35.31881
-26.48664
-32.14777
-35.29821
-35.76423
-29.34339
-26.50451
-29.19488
-27.08117
-37.89797
-37.99632
-23.674
-26.89689
-27.08076
-23.61417
-37.97438
-38.09156
-27.19618
-28.20344
-22.83548
-37.95043
-38.14224
-28.17879
-22.70006
-37.67362
-37.96375
-23.44083
-28.05188
-37.11475
-37.3915
-23.119
-33.99886
-36.73163
-37.11184
-34.38906
-34.71948
-36.34571
-23.69111
-35.02004
-27.98245
-23.56146
-34.86597
-24.07691
-35.33533
-34.6969
-23.9752
-35.61526
-36.09059
-24.45176
-33.8219
-36.2743
-36.90885
-33.59381
-24.34619
-36.95976
-37.47817
-24.78628
-27.8635
-24.67266
-37.45556
-37.76586
-25.0898
-29.00739
-28.11865
-29.9406
-37.74013
-37.90478
-30.79053
-31.22732
-24.9776
-38.00212
-37.91432
-31.73728
-32.63588
-38.21436
-38.10682
-32.79564
-25.49532
-38.43877
-38.00875
-25.42209
-34.44356
-38.22629
-25.90331
-35.17142
-25.75346
-26.20069
-36.61905
-28.51215
-35.53884
-35.83675
-29.1884
-35.79737
-36.88348
-24.37995
-34.67269
-36.95946
-37.59572
-34.58919
-29.31815
-37.74226
-37.78096
-24.40805
-32.92717
-37.90689
-37.68101
-29.12953
-31.70693
-24.64084
-37.86078
-37.66197
-29.03714
-29.88237
-24.61981
-25.0557
-37.84538
-37.71479
-29.64834
-28.86982
-25.03995
-25.51015
-37.83011
-37.74846
-28.82326
-30.23358
-25.4512
-25.8943
-37.87966
-37.805
-26.219
-34.09403
-38.07876
-37.69963
-34.79336
-25.80424
-32.45084
-38.06521
-26.22914
-35.98134
-38.17306
-26.00697
-36.6043
-26.12802
-26.61504
-36.01191
-26.68904
-37.69557
-35.55329
-35.99541
-37.95949
-37.64176
-34.8742
-27.17925
-37.6932
-37.53138
-25.07429
-26.87584
-37.69387
-37.99778
-27.2828
-24.99347
-27.08826
-38.05617
-38.68751
-27.58527
-24.44928
-27.47732
-30.63027
-38.46205
-39.21269
-27.954
-24.12662
-29.8732
-29.63156
-38.61991
-39.31705
-27.86335
-28.41903
-28.95841
-30.13141
-38.50326
-39.04554
-25.16046
-26.05152
-30.6049
-38.22601
-38.54699
-25.83294
-26.43722
-38.00411
-38.1964
-35.12392
-36.00079
-37.90464
-30.85711
-36.72436
-30.27009
-26.40048
-38.07093
-26.89908
-37.5955
-37.61259
-37.45396
-37.77283
-37.70607
-35.68906
-29.82327
-37.60678
-37.70382
-26.84834
-34.71583
-38.03423
-38.9913
-32.65346
-27.29293
-39.3356
-40.47665
-29.58568
-27.21529
-31.44664
-40.49716
-40.90833
-27.6768
-28.5527
-30.41758
-29.87522
-40.88396
-41.11584
-27.60468
-30.18803
-28.07566
-29.11786
-41.38319
-41.34365
-30.39415
-30.05265
-28.02832
-28.43489
-41.32324
-41.55667
-29.18298
-28.29212
-28.72859
-40.89331
-41.3652
-25.96712
-33.27891
-40.03411
-40.43522
-34.34824
-34.77985
-38.33584
-38.32032
-37.91507
-37.56969
-38.04854
-28.58026
-37.5386
-37.94651
-29.02856
-26.07236
-38.30905
-39.68458
-28.90284
-29.35123
-40.45061
-41.26662
-24.89076
-29.30484
-41.368
-40.33012
-29.84015
-24.8269
-25.5796
-40.35389
-39.14916
-30.06491
-25.60275
-30.23056
-25.21548
-39.54492
-38.76987
-27.78207
-28.25661
-30.21288
-28.26539
-39.51607
-38.90773
-28.74374
-31.31797
-30.67376
-28.70226
-40.01674
-39.45671
-31.69912
-32.68722
-29.16313
-41.02388
-40.64924
-34.0651
-29.09572
-41.67579
-41.64023
-29.51245
-33.57841
-40.67362
-37.76049
-36.35648
-29.38884
-33.95667
-37.80309
-29.79162
-37.64614
-38.07724
-38.00905
-40.72435
-41.20338
-35.13758
-34.89076
-40.98251
-39.55143
-33.35648
-32.94202
-39.11891
-38.4735
-26.59773
-32.08974
-31.80274
-38.54278
-39.08914
-29.72044
-30.11423
-31.07122
-26.66102
-38.87785
-40.01086
-30.01886
-30.3967
-30.31504
-30.71382
-39.03069
-39.82199
-25.88132
-31.86019
-30.66816
-31.13126
-38.73554
-38.91196
-33.72292
-33.05936
-26.61195
-38.90707
-38.84722
-34.35722
-34.75682
-40.37103
-40.63349
-35.2011
-30.93754
-41.02777
-40.67965
-31.05119
-37.14454
-38.83294
-38.40757
-37.87077
-37.72407
-37.78234
-26.34258
-37.65253
-31.11159
-26.42815
-37.81666
-30.78761
-38.96032
-36.49602
-36.05056
-39.0089
-40.76202
-26.99748
-31.11179
-27.24743
-42.03299
-45.2665
-27.70407
-31.17488
-30.07864
-30.67391
-45.142
-45.23424
-30.46202
-30.42288
-30.17034
-30.78046
-45.01755
-45.97534
-26.63224
-30.7155
-31.10556
-27.28002
-41.9025
-42.15088
-30.99653
-33.8181
-31.36579
-39.00986
-38.8419
-34.75739
-31.23892
-39.08476
-39.42556
-31.63165
-27.31343
-41.15263
-41.13612
-31.48816
-37.21635
-39.98153
-31.90695
-37.73977
-27.37177
-31.72292
-37.73485
-32.18355
-38.11689
-38.01485
-37.83912
-39.29751
-40.91562
-36.82589
-27.26428
-41.14016
-39.84923
-32.30452
-27.39815
-38.94339
-38.47965
-31.81977
-27.31581
-38.32827
-35.86632
-31.66134
-32.32652
-27.37481
-29.46733
-39.56496
-39.08497
-28.54493
-32.04517
-28.82755
-28.48225
-46.09583
-46.15553
-29.10133
-31.29509
-29.1113
-40.54331
-39.5559
-29.64169
-31.34606
-38.57482
-38.8256
-30.85978
-36.02301
-40.44544
-40.90134
-37.71337
-29.64831
-39.95742
-38.98007
-30.09098
-37.69458
-37.86486
-37.7417
-38.31027
-27.3747
-37.87745
-32.08092
-32.50554
-41.08842
-32.38547
-36.27192
-39.79171
-38.7345
-35.31962
-34.73796
-38.71921
-39.79126
-33.55826
-32.88182
-43.10277
-45.60708
-27.66789
-32.70357
-33.22189
-43.16291
-38.32736
-27.97807
-32.98747
-33.50669
-28.26035
-43.44252
-46.44375
-33.24168
-33.76432
-28.21953
-41.31261
-39.48605
-33.07563
-35.20384
-38.49225
-39.10502
-35.92787
-36.71093
-40.92485
-41.36164
-37.6975
-37.83822
-39.45198
-38.35896
-37.66649
-33.322
-37.67185
-28.25621
-33.20215
-39.6504
-33.79044
-37.81271
-41.03385
-40.59086
-36.7939
-28.39998
-38.94537
-38.41772
-29.3449
-33.57338
-39.86671
-42.31919
-29.32543
-33.26776
-45.78572
-41.35901
-28.82376
-32.45301
-29.97748
-36.24885
-34.05323
-29.62687
-30.21219
-32.65438
-31.15016
-33.16313
-30.70424
-31.35728
-30.119
-29.84514
-34.94698
-36.38396
-31.8747
-30.40583
-32.37427
-30.41279
-38.83585
-40.02712
-30.85361
-30.37185
-41.35834
-40.45609
-37.74785
-32.43149
-38.62787
-30.86892
-31.29615
-37.9645
-32.19473
-37.7251
-39.12377
-40.15173
-37.9298
-31.29139
-40.84467
-39.83978
-31.73833
-36.1781
-38.5256
-38.67715
-34.95212
-26.75069
-41.02282
-43.2505
-31.69806
-32.16836
-44.10184
-41.26119
-34.18073
-34.44445
-32.1037
-35.21639
-34.73537
-34.33616
-34.57593
-30.89391
-34.41814
-32.94629
-34.14746
-34.66535
-29.0819
-34.63452
-34.61818
-35.6923
-39.22526
-29.25805
-32.94506
-30.11139
-34.61691
-45.12644
-44.65564
-34.44203