# vtk DataFile Version 3.0
Mesh2HRTF Files
ASCII
DATASET POLYDATA
POINTS 1208 float
 0.0021  0.0865 -0.0122
 0.0015  0.0873 -0.0034
 0.0097  0.0868 -0.0039
 0.0103  0.0859 -0.0125
 0.0067  0.0173 -0.0854
-0.0024  0.0177  0.0856
-0.0082  0.0870  0.0048
-0.0025  0.0361  0.0796
 0.0005  0.0044 -0.0874
 0.0077  0.0261 -0.0831
-0.0105  0.0129  0.0858
 0.0016  0.0848 -0.0212
 0.0105  0.0842 -0.0209
-0.0095  0.0860  0.0129
-0.0005  0.0444  0.0754
 0.0033  0.0821 -0.0298
 0.0117  0.0818 -0.0283
 0.0070  0.0354 -0.0796
 0.0005  0.0518  0.0705
-0.0461  0.0047 -0.0741
 0.0081  0.0786 -0.0374
-0.0105  0.0842  0.0212
 0.0024  0.0586  0.0649
-0.0000  0.0747 -0.0454
 0.0103  0.0737 -0.0458
-0.0047  0.0642  0.0592
 0.0055  0.0644  0.0589
 0.0030  0.0697 -0.0527
 0.0124  0.0682 -0.0533
-0.0018  0.0703  0.0519
 0.0043  0.0450 -0.0749
 0.0047  0.0632 -0.0601
-0.0111  0.0815  0.0295
-0.0045  0.0755  0.0438
 0.0040  0.0749  0.0450
 0.0058  0.0549 -0.0677
-0.0113  0.0781  0.0377
-0.0026  0.0791  0.0371
 0.0068  0.0791  0.0365
-0.0040  0.0587 -0.0648
 0.0149  0.0486 -0.0711
-0.0031  0.0824  0.0289
 0.0040  0.0828  0.0273
-0.0120  0.0736  0.0456
-0.0031  0.0651 -0.0583
-0.0024  0.0849  0.0207
 0.0057  0.0848  0.0203
-0.0129  0.0683  0.0530
-0.0023 -0.0018  0.0873
-0.0068  0.0697 -0.0524
-0.0068  0.0576  0.0655
-0.0035  0.0788 -0.0376
-0.0011  0.0865  0.0127
 0.0072  0.0862  0.0126
-0.0080  0.0503  0.0711
-0.0054  0.0823 -0.0290
-0.0088  0.0424  0.0760
-0.0074  0.0849 -0.0195
 0.0002  0.0874  0.0047
 0.0086  0.0870  0.0045
 0.0067  0.0089 -0.0868
-0.0116  0.0333  0.0800
-0.0107  0.0230  0.0836
-0.0048  0.0866 -0.0102
 0.0160  0.0557 -0.0655
-0.0066  0.0871 -0.0030
 0.0002 -0.0382 -0.0786
 0.0117  0.0815  0.0294
 0.0158  0.0399 -0.0761
 0.0140  0.0836  0.0213
-0.0187  0.0827  0.0214
 0.0161  0.0306 -0.0803
 0.0157  0.0850  0.0130
-0.0192  0.0799  0.0298
-0.0049  0.0509 -0.0709
 0.0170  0.0857  0.0044
-0.0194  0.0762  0.0381
-0.0203  0.0715  0.0460
 0.0179  0.0855 -0.0042
 0.0055  0.0308  0.0816
-0.0115  0.0628 -0.0597
 0.0185  0.0845 -0.0129
-0.0150  0.0621  0.0596
 0.0188  0.0826 -0.0215
-0.0107  0.0741 -0.0451
 0.0190  0.0797 -0.0303
-0.0162  0.0552  0.0658
 0.0186  0.0761 -0.0387
 0.0119  0.0578  0.0646
 0.0203  0.0713 -0.0463
-0.0147  0.0780 -0.0368
-0.0166  0.0480  0.0711
 0.0095  0.0694  0.0523
 0.0139  0.0620 -0.0600
 0.0131  0.0738  0.0451
-0.0135  0.0819 -0.0273
-0.0166  0.0409  0.0754
 0.0222  0.0818  0.0214
 0.0239  0.0831  0.0130
-0.0023  0.0079  0.0870
-0.0231 -0.0138 -0.0831
-0.0223  0.0357  0.0766
 0.0252  0.0837  0.0043
-0.0027  0.0273  0.0830
-0.0124  0.0856 -0.0122
 0.0261  0.0834 -0.0045
-0.0149  0.0860 -0.0040
-0.0017  0.0216 -0.0848
 0.0265  0.0822 -0.0133
 0.0052  0.0385  0.0783
 0.0267  0.0802 -0.0222
 0.0094  0.0449  0.0745
 0.0271  0.0771 -0.0308
 0.0084  0.0526  0.0693
 0.0284  0.0730 -0.0387
 0.0001  0.0296 -0.0823
-0.0183  0.0179  0.0835
 0.0158  0.0627  0.0588
 0.0219  0.0657 -0.0534
 0.0198  0.0672  0.0524
 0.0231  0.0594 -0.0599
 0.0098 -0.0370 -0.0786
 0.0236  0.0522 -0.0660
 0.0163  0.0774  0.0373
-0.0166  0.0858  0.0044
 0.0197  0.0798  0.0296
 0.0157  0.0210 -0.0834
-0.0179  0.0846  0.0129
 0.0333  0.0808  0.0042
 0.0341  0.0804 -0.0046
-0.0277  0.0740  0.0375
-0.0146  0.0545 -0.0667
-0.0283  0.0698  0.0443
 0.0345  0.0792 -0.0134
-0.0242  0.0655  0.0526
 0.0346  0.0771 -0.0222
-0.0165  0.0676 -0.0529
 0.0351  0.0739 -0.0306
 0.0162  0.0495  0.0703
 0.0198 -0.0348 -0.0777
 0.0209  0.0548  0.0648
 0.0301  0.0679 -0.0461
 0.0256  0.0596  0.0587
 0.0312  0.0621 -0.0531
-0.0250  0.0586  0.0599
-0.0211  0.0716 -0.0457
 0.0220  0.0718  0.0448
 0.0246 -0.0180 -0.0820
 0.0248  0.0752  0.0370
 0.0262  0.0434 -0.0713
 0.0278  0.0775  0.0293
-0.0245  0.0438  0.0715
 0.0302  0.0792  0.0212
-0.0215  0.0794 -0.0296
-0.0170  0.0833 -0.0203
 0.0320  0.0804  0.0128
 0.0060  0.0125  0.0864
-0.0206  0.0840 -0.0127
 0.0422  0.0754 -0.0130
 0.0424  0.0734 -0.0212
 0.0129  0.0355  0.0789
-0.0232  0.0842 -0.0044
 0.0425  0.0708 -0.0285
-0.0249  0.0837  0.0042
 0.0384  0.0689 -0.0378
 0.0295  0.0512  0.0645
 0.0394  0.0632 -0.0459
-0.0261  0.0825  0.0128
-0.0033  0.0363 -0.0795
 0.0303  0.0639  0.0514
 0.0316  0.0558 -0.0594
 0.0296  0.0700  0.0432
 0.0315  0.0495 -0.0649
 0.0327  0.0723  0.0365
-0.0069  0.0430 -0.0758
 0.0356  0.0744  0.0290
 0.0252  0.0341 -0.0765
 0.0379  0.0759  0.0210
-0.0269  0.0804  0.0214
-0.0273  0.0775  0.0297
 0.0398  0.0769  0.0126
-0.0206  0.0605 -0.0596
-0.0341  0.0602  0.0535
 0.0411  0.0771  0.0041
-0.0262  0.0643 -0.0531
-0.0252  0.0513  0.0661
 0.0419  0.0767 -0.0046
-0.0255  0.0745 -0.0379
 0.0482  0.0664 -0.0302
 0.0465  0.0631 -0.0386
 0.0244  0.0462  0.0701
-0.0468 -0.0737  0.0046
 0.0510  0.0130 -0.0697
 0.0349  0.0549  0.0584
 0.0400  0.0570 -0.0529
-0.0255  0.0808 -0.0215
 0.0393  0.0506 -0.0596
 0.0366  0.0656  0.0448
 0.0370  0.0437 -0.0661
 0.0401  0.0683  0.0370
-0.0288  0.0814 -0.0132
 0.0430  0.0704  0.0290
-0.0193  0.0275  0.0807
 0.0453  0.0718  0.0208
-0.0313  0.0815 -0.0047
 0.0241  0.0244 -0.0804
 0.0472  0.0726  0.0124
-0.0330  0.0809  0.0040
-0.0341  0.0795  0.0128
 0.0485  0.0727  0.0039
 0.0058  0.0220  0.0844
-0.0348  0.0773  0.0214
 0.0492  0.0722 -0.0047
 0.0135  0.0266  0.0822
-0.0151  0.0454 -0.0731
 0.0494  0.0709 -0.0132
-0.0351  0.0743  0.0298
 0.0492  0.0689 -0.0216
 0.0192  0.0407  0.0750
 0.0488  0.0565 -0.0455
 0.0478  0.0505 -0.0531
-0.0352  0.0705  0.0378
 0.0402  0.0579  0.0518
-0.0347  0.0657  0.0460
 0.0438  0.0613  0.0444
-0.0313  0.0674 -0.0459
 0.0471  0.0641  0.0363
 0.0358  0.0353 -0.0715
 0.0499  0.0658  0.0284
-0.0334  0.0460  0.0664
 0.0523  0.0670  0.0204
 0.0380  0.0198 -0.0763
-0.0316  0.0383  0.0719
 0.0541  0.0676  0.0120
-0.0300  0.0765 -0.0300
-0.0337  0.0777 -0.0217
 0.0554  0.0676  0.0035
-0.0289  0.0304  0.0766
 0.0150  0.0120 -0.0854
 0.0560  0.0670 -0.0050
-0.0368  0.0782 -0.0133
-0.0391  0.0780 -0.0047
 0.0561  0.0657 -0.0135
-0.0408  0.0773  0.0041
 0.0556  0.0638 -0.0218
 0.0288  0.0358  0.0744
 0.0547  0.0613 -0.0298
 0.0320  0.0431  0.0690
 0.0536  0.0582 -0.0371
 0.0378  0.0460  0.0640
 0.0460  0.0444 -0.0597
 0.0437  0.0386 -0.0652
 0.0502  0.0577  0.0423
 0.0534  0.0593  0.0355
-0.0088  0.0277 -0.0825
 0.0563  0.0607  0.0279
 0.0326  0.0269 -0.0765
 0.0588  0.0616  0.0199
-0.0418  0.0757  0.0128
-0.0424  0.0734  0.0215
 0.0606  0.0620  0.0117
-0.0425  0.0702  0.0299
-0.0237  0.0470 -0.0698
 0.0618  0.0619  0.0032
-0.0423  0.0662  0.0382
-0.0242  0.0539 -0.0644
 0.0622  0.0612 -0.0054
-0.0420  0.0612  0.0461
-0.0301  0.0569 -0.0592
 0.0621  0.0599 -0.0139
 0.0211  0.0313  0.0789
 0.0614  0.0580 -0.0224
-0.0343  0.0533  0.0601
 0.0602  0.0555 -0.0306
-0.0380  0.0730 -0.0295
 0.0582  0.0523 -0.0389
-0.0415  0.0739 -0.0214
 0.0561  0.0482 -0.0467
 0.0437  0.0488  0.0579
-0.0320  0.0175  0.0794
 0.0494  0.0513  0.0506
-0.0443  0.0741 -0.0131
-0.0262  0.0223  0.0803
 0.0622  0.0547  0.0277
 0.0646  0.0554  0.0197
-0.0466  0.0738 -0.0046
-0.0111  0.0182 -0.0848
 0.0664  0.0557  0.0113
-0.0482  0.0729  0.0041
 0.0235  0.0141 -0.0831
 0.0675  0.0555  0.0028
 0.0139  0.0170  0.0847
-0.0491  0.0712  0.0128
 0.0679  0.0548 -0.0058
-0.0148  0.0351 -0.0787
-0.0495  0.0687  0.0214
 0.0676  0.0535 -0.0144
 0.0287  0.0259  0.0785
 0.0667  0.0517 -0.0229
-0.0496  0.0655  0.0297
 0.0651  0.0492 -0.0313
 0.0378  0.0367  0.0698
 0.0633  0.0457 -0.0394
 0.0447  0.0393  0.0641
-0.0494  0.0616  0.0375
 0.0513  0.0413  0.0575
 0.0544  0.0425 -0.0536
-0.0492  0.0572  0.0443
 0.0516  0.0367 -0.0603
 0.0553  0.0518  0.0436
 0.0473  0.0310 -0.0667
 0.0591  0.0536  0.0355
 0.0061  0.0031  0.0872
-0.0440  0.0540  0.0528
 0.0312  0.0173 -0.0799
-0.0362  0.0596 -0.0527
 0.0716  0.0489  0.0110
 0.0727  0.0486  0.0024
-0.0426  0.0468  0.0602
-0.0345  0.0709 -0.0378
 0.0729  0.0479 -0.0062
 0.0210  0.0220  0.0820
-0.0515  0.0694 -0.0131
 0.0725  0.0466 -0.0148
-0.0405 -0.0416 -0.0653
 0.0714  0.0447 -0.0231
 0.0367  0.0277  0.0744
 0.0699  0.0424 -0.0309
-0.0536  0.0689 -0.0046
 0.0682  0.0394 -0.0379
 0.0510  0.0319  0.0635
 0.0629  0.0392 -0.0464
-0.0257  0.0130  0.0825
 0.0598  0.0338 -0.0541
 0.0578  0.0423  0.0502
-0.0551  0.0678  0.0041
 0.0606  0.0470  0.0419
-0.0185  0.0078  0.0851
 0.0643  0.0476  0.0351
 0.0419  0.0260 -0.0722
 0.0674  0.0483  0.0275
-0.0560  0.0659  0.0128
 0.0699  0.0488  0.0194
-0.0562  0.0634  0.0214
-0.0235  0.0387 -0.0748
-0.0561  0.0600  0.0297
 0.0069  0.0002 -0.0872
 0.0772  0.0404 -0.0067
 0.0767  0.0392 -0.0152
-0.0557  0.0559  0.0376
 0.0754  0.0374 -0.0235
-0.0318  0.0490 -0.0651
 0.0735  0.0352 -0.0316
 0.0440  0.0299  0.0694
 0.0707  0.0325 -0.0399
-0.0543  0.0509  0.0457
 0.0673  0.0292 -0.0476
 0.0575  0.0325  0.0573
-0.0387  0.0514 -0.0593
-0.0517  0.0458  0.0534
 0.0558  0.0283 -0.0610
 0.0644  0.0400  0.0436
 0.0511  0.0221 -0.0674
 0.0687  0.0406  0.0356
-0.0419  0.0621 -0.0451
 0.0720  0.0413  0.0274
 0.0448  0.0166 -0.0732
 0.0745  0.0416  0.0191
-0.0409  0.0394  0.0664
-0.0419  0.0677 -0.0361
 0.0762  0.0416  0.0106
-0.0383  0.0318  0.0718
-0.0454  0.0688 -0.0290
 0.0771  0.0413  0.0020
 0.0350  0.0184  0.0780
-0.0487  0.0694 -0.0213
 0.0786  0.0298 -0.0241
 0.0763  0.0276 -0.0324
 0.0495  0.0236  0.0681
 0.0735  0.0247 -0.0404
 0.0560  0.0232  0.0630
-0.0351  0.0244  0.0762
-0.0616  0.0620  0.0039
 0.0640  0.0243 -0.0544
 0.0638  0.0320  0.0506
 0.0599  0.0195 -0.0606
 0.0686  0.0329  0.0430
 0.0563  0.0144 -0.0653
 0.0727  0.0338  0.0348
-0.0622  0.0601  0.0126
 0.0759  0.0341  0.0268
-0.0251  0.0292 -0.0785
 0.0783  0.0342  0.0185
-0.0107  0.0026  0.0867
-0.0624  0.0574  0.0212
 0.0799  0.0340  0.0101
-0.0620  0.0539  0.0296
 0.0223  0.0028 -0.0845
 0.0808  0.0335  0.0015
-0.0319  0.0410 -0.0703
-0.0613  0.0494  0.0378
 0.0808  0.0327 -0.0071
-0.0605  0.0437  0.0454
-0.0454  0.0531 -0.0526
 0.0800  0.0314 -0.0157
-0.0499  0.0390  0.0602
-0.0481  0.0625 -0.0377
 0.0763  0.0172 -0.0391
 0.0711  0.0185 -0.0473
 0.0626  0.0226  0.0568
 0.0667  0.0142 -0.0548
 0.0688  0.0218  0.0493
-0.0438  0.0242  0.0716
[...]
CELL_DATA 2412

SCALARS 20log(pressure/1)-source_1 float 1
LOOKUP_TABLE default
-29.07403
-32.25907
-54.33061
-54.80941
-35.02094
-34.9097
-36.78134
-32.89639
-58.07044
-39.1134
-40.39572
-55.92445
-55.45694
-42.36285
-61.58444
-27.73828
-51.80601
-57.46612
-45.6364
-50.8878
-50.34889
-46.98227
-47.85094
-49.30364
-23.21594
-49.0327
-49.75824
-57.8013
-46.79122
-50.90742
-57.38832
-45.3294
-44.69161
-55.53536
-56.50404
-42.84402
-41.94868
-21.54788
-39.61472
-38.53023
-57.03916
-56.57927
-57.03366
-35.89932
-34.79037
-57.44867
-27.79148
-31.08923
-56.12114
-30.85644
-30.0765
-55.57784
-57.45902
-57.88982
-34.63073
-24.27225
-28.039
-36.52472
-55.02893
-54.37671
-58.28908
-52.34765
-38.99603
-60.86215
-42.16318
-40.32746
-53.76667
-40.21929
-39.95099
-52.78021
-42.30439
-43.28827
-37.42465
-37.34268
-52.95456
-51.94802
-44.73959
-45.68503
-34.42341
-35.16175
-51.07837
-50.30619
-46.99211
-47.83557
-32.85824
-34.80673
-49.25061
-48.55863
-48.89645
-49.685
-34.65055
-36.68982
-47.44124
-55.10101
-50.61104
-37.69179
-39.37414
-54.48888
-44.63249
-40.60577
-42.07156
-52.30932
-43.05081
-43.17448
-44.3741
-41.964
-52.12228
-45.53841
-46.68607
-50.88443
-53.13786
-47.74903
-48.67859
-53.59241
-48.78024
-49.6236
-39.65851
-47.63354
-47.19941
-38.1955
-51.42306
-45.66099
-61.06228
-55.10883
-57.34652
-39.8404
-40.1472
-56.97498
-56.45967
-56.9645
-27.99029
-38.26459
-39.08926
-31.18217
-56.53017
-56.12273
-56.96517
-37.78778
-39.09423
-57.43289
-32.36256
-34.89004
-55.59702
-38.75658
-40.20351
-55.1582
-57.88857
-36.76391
-40.60809
-41.97713
-38.55825
-54.0727
-42.7733
-44.00148
-53.40557
-53.00048
-44.92412
-46.0209
-51.73232
-54.52324
-46.92304
-47.97701
-40.30153
-50.55334
-48.80951
-41.64288
-49.58295
-49.30345
-43.17671
-50.37256
-48.18968
-57.97604
-51.18072
-51.86575
-60.94658
-45.29039
-52.58755
-53.28856
-43.71243
-43.57544
-53.88484
-54.57573
-41.80445
-41.79222
-44.24239
-51.90525
-45.59313
-41.26901
-42.2618
-56.08525
-46.52245
-51.07794
-50.26794
-41.91736
-43.01237
-47.73003
-55.11705
-48.61214
-43.16571
-44.24803
-54.50391
-49.23121
-44.76466
-45.80227
-49.54916
-61.04706
-46.53408
-47.63993
-52.34778
-52.20741
-48.37415
-46.78446
-51.33012
-51.17881
-51.268
-49.69292
-50.24792
-45.39268
-50.44901
-51.20432
-44.68638
-47.93941
-51.9195
-52.11127
-46.5214
-46.34061
-52.66202
-42.90219
-44.94148
-44.93418
-42.04235
-53.42886
-43.50141
-43.69039
-53.86938
-39.42158
-58.86087
-42.24078
-42.68964
-54.61727
-54.9118
-62.02519
-33.47827
-41.40502
-42.15535
-57.70092
-56.53098
-55.42226
-45.36359
-46.21518
-55.93624
-54.40239
-46.5478
-47.32834
-53.09931
-29.6883
-48.00169
-61.37435
-30.78562
-52.9118
-60.88144
-49.36562
-52.00493
-39.47994
-50.01209
-50.90121
-40.9762
-50.10878
-51.45904
-54.14745
-49.02971
-48.78869
-42.07867
-52.51727
-47.40077
-47.34559
-53.27327
-43.29117
-46.25507
-46.39998
-53.41986
-44.42822
-45.26024
-45.56143
-45.40782
-46.5265
-55.73817
-44.46175
-44.94357
-47.31002
-48.43081
-56.2038
-48.93397
-44.00478
-44.66856
-50.36554
-47.68332
-47.37191
-51.2002
-44.00302
-44.8057
-51.92358
-56.10958
-45.93993
-60.96378
-44.48056
-45.34548
-55.60461
-52.61915
-48.86186
-49.54655
-52.8216
-53.24082
-49.91079
-50.89531
-60.6044
-51.97797
-51.38136
-42.66763
-51.14572
-53.82456
-54.54373
-52.20558
-41.07207
-49.35925
-52.69019
-53.37198
-48.54297
-48.70735
-53.76906
-54.41796
-47.71936
-47.94422
-54.82361
-38.80607
-46.98814
-47.32889
-54.40322
-36.55719
-37.04666
-46.46435
-46.94077
-34.85823
-36.10742
-34.82427
-36.67602
-46.21201
-46.80895
-36.82164
-38.606
-53.33273
-52.86986
-46.283
-46.95334
-45.81857
-46.78969
-52.71805
-47.52095
-46.64728
-47.37455
-48.44025
-50.89072
-49.05348
-47.2852
-48.02601
-49.87925
-49.77558
-48.10686
-48.83713
-49.58151
-53.70178
-50.54143
-52.20676
-51.44055
-51.23922
-52.60672
-53.30779
-50.51429
-50.70798
-53.68657
-48.50945
-49.79937
-49.95489
-52.0714
-45.76831
-49.08726
-49.33693
-53.37779
-55.48411
-48.56907
-48.92095
-44.40057
-55.89694
-62.07772
-48.23878
-48.68184
-55.08359
-62.16787
-41.33761
-39.65773
-48.10911
-48.62992
-40.30323
-57.05449
-38.89719
-39.94438
-48.19299
-48.77234
-56.60101
-56.50027
-39.13422
-40.44914
-48.48887
-49.10886
-57.42703
-40.34589
-41.68998
-48.97635
-49.60703
-55.46637
-55.01845
-49.60175
-50.21069
-54.37596
-54.26877
-50.32306
-50.90991
-53.48081
-53.48063
-51.32643
-42.08691
-52.86005
-43.32265
-54.58793
-54.23488
-50.83403
-50.99923
-54.6813
-54.17139
-50.34549
-50.62549
-43.97744
-45.0696
-50.01395
-50.36638
-51.49081
-51.27715
-50.29815
-49.81431
-50.22898
-51.18571
-50.49904
-51.78544
-56.7883
-49.75634
-50.22383
-48.43611
-52.81708
-57.15936
-47.29946
-49.84838
-50.36187
-59.95392
-54.03216
-60.01195
-44.60227
-50.09762
-50.63946
-43.21987
-55.59042
-43.58491
-50.48435
-51.04217
-54.99838
-59.27218
-50.98545
-51.55427
-42.33482
-57.42122
-51.58224
-52.1699
-54.24019
-42.9776
-52.12718
-52.719
-55.56449
-52.97131
-52.82341
-53.57748
-52.33271
-52.50442
-53.79303
-42.00822
-51.78237
-51.79476
-55.84141
-42.89475
-51.35756
-51.69839
-42.31136
-43.34596
-56.67082
-51.23679
-51.62217
-56.02962
-43.17822
-56.91115
-44.25063
-51.22082
-51.64509
-55.21823
-44.4222
-45.45493
-45.85215
-51.31571
-51.77427
-46.81532
-56.6053
-47.3438
-48.23936
-51.52794
-52.0064
-56.09128
-56.11743
-52.38947
-51.84457
-52.33901
-55.60799
-55.73967
-52.26222
-52.77033
-54.68895
-48.84894
-52.77878
-53.3079
-49.67946
-54.40326
-53.41259
-54.04034
-53.85644
-54.05273
-54.22198
-49.65179
-53.49925
-53.11269
-53.824
-54.44171
-47.33739
-52.36443
-54.63249
-55.1872
-51.90034
-52.14282
-55.24318
-55.68318
-51.57952
-51.86823
-57.88946
-57.91276
-54.27121
-57.49268
-52.53605
-52.92284
-57.52967
-46.08213
-57.74522
-46.2687
-52.63165
-53.0385
-55.27235
-45.12765
-45.53991
-57.93708
-52.80929
-53.23259
-56.58091
-56.59147
-44.62206
-53.07143
-53.50451
-56.39778
-45.23934
-53.41809
-53.85223
-56.1631
-56.02892
-53.86505
-54.30263
-44.53649
-55.12161
-54.50694
-45.30289
-54.85533
-56.93263
-56.96299
-54.83008
-44.85564
-53.78596
-54.95712
-55.51477
-53.3238
-53.5271
-55.63138
-45.71168
-52.89275
-53.14436
-56.42653
-45.53188
-52.71243
-53.00964
-46.41807
-56.37619
-52.58594
-52.91376
-58.27493
-56.51121
-46.47948
-52.52261
-52.8811
-47.35123
-54.31548
-47.59838
-48.43057
-53.96381
-54.34398
-53.7508
-48.81574
-49.5837
-54.18614
-54.57786
-52.68491
-50.08172
-54.47583
-54.87718
-50.7566
-55.58252
-54.82774
-55.23032
-55.30829
-52.08188
-55.07669
-55.44923
-51.41296
-55.11708
-55.42507
-55.96055
-54.72704
-50.50105
-56.01582
-52.60645
-47.46269
-54.11793
-47.69051
-56.14521
-53.89428
-54.18642
-56.22902
-55.77909
-53.80285
-54.08836
-46.87807
-47.32229
-53.71688
-54.02372
-56.77713
-46.63482
-47.20891
-53.68723
-54.01827
-57.68839
-57.26287
-46.67502
-47.34142
-53.72038
-54.07192
-56.98512
-46.98325
-47.70691
-56.30885
-53.81
-54.176
-47.53455
-56.62886
-55.43492
-55.79338
-56.27957
-56.40248
-55.71503
-56.08152
-55.93408
-56.16448
-56.044
-56.5124
-55.87414
-48.28515
-56.54741
-55.6044
-48.28709
-55.09044
-49.04094
-56.47833
-54.83788
-55.21344
-56.56942
-56.98269
-54.86779
-55.12699
-57.19727
-57.11746
-54.77258
-55.0428
-56.69811
-57.69609
-54.7293
-55.01993
-49.18895
-57.23068
-49.93184
-54.73337
-55.03991
-53.92954
-50.18572
-50.91387
-53.4119
-54.78048
-55.09996
-51.21643
-51.93799
-52.19586
-57.98487
-54.87017
-55.20127
-52.1148
-52.74252
-58.10738
-51.51238
-55.00625
-55.34875
-53.03795
-53.79315
-49.74951
-55.19476
-55.54652
-56.77917
-54.16766
-56.93463
-48.76078
-48.71989
-56.18466
-54.86841
-56.99819
-55.91915
-56.2708
-56.99112
-57.40943
-55.95916
-56.12704
-57.4082
-48.41262
-55.68067
-55.9143
-48.9372
-48.51537
-55.6458
-55.90872
-49.10221
-48.80695
-55.65253
-55.92771
-49.43416
-49.27264
-57.58305
-55.68444
-55.96912
-49.92213
-55.69662
-57.87585
-49.89279
-55.7423
-56.03544
-50.55271
-57.53664
-55.04741
-55.08105
-55.82979
-56.13081
-57.07825
-57.06013
-50.64358
-51.30876
-55.95104
-56.25894
-56.71303
-54.57957
-51.49865
-56.10994
-56.42176
-52.172
-53.60187
-56.30767
-56.61947
-52.43108
-56.76598
-56.5539
-56.86544
-56.97453
-53.10497
-57.8968
-53.04025
-53.36106
-56.58375
-54.00759
-57.79131
-56.45371
-56.69146
-57.63759
-51.70769
-56.47231
-56.7202
-54.2825
-58.10339
-56.50634
-56.76364
-51.00362
-58.05968
-54.83215
-56.55513
-56.81862
-49.47934
-55.16852
-55.74018
-48.86777
-56.61936
-56.88848
-49.20368
-56.02936
-56.54027
-48.52194
-56.70327
-56.97823
-48.9544
-61.11818
-50.40197
-50.95227
-56.81138
-57.09092
-57.84544
-58.28897
-50.80353
-56.94604
-57.22944
-51.37047
-58.32177
-57.11118
-57.39857
-51.32551
-51.90265
-57.3077
-57.59234
-51.9616
-57.07076
-57.39569
-57.64821
-56.86115
-57.18044
-57.54497
-57.94446
-57.14788
-57.38953
-58.3551
-58.6339
-57.22195
-57.46443
-58.53325
-52.54666
-57.28639
-57.52866
-52.70771
-53.30806
-58.41046
-57.34937
-57.59363
-53.57292
-54.26918
-58.35963
-53.24654
-57.41848
-57.66568
-54.53322
-52.6986
-54.92413
-51.32974
-57.50046
-57.75275
-55.21306
-57.42561
-50.73299
-50.96941
-57.59663
-57.85019
-57.23703
-57.46944
-56.09605
-57.70723
-57.96152
-57.2387
-57.55114
-57.83832
-58.09409
-56.90821
-50.14546
-57.98438
-58.24475
-50.47878
-57.6105
-58.14628
-58.48628
-57.74666
-56.83174
-58.45271
-49.98039
-50.40742
-57.33177
-49.98295
-58.26664
-57.16881
-57.4192
-58.19187
-58.50058
-58.00305
-58.22683
-50.46628
-57.25651
-50.12627
-58.07221
-58.2968
-50.64968
-57.37089
-57.78769
-58.75191
-58.14344
-58.36865
-52.60882
-53.11112
-58.43937
-56.15597
-58.22676
-58.45532
-58.68773
-53.14737
-53.64726
-54.80706
-58.31174
-58.53648
-53.7934
-54.27954
-54.41556
-58.39746
-58.61959
-54.55835
-54.60343
-58.49593
-58.72265
-55.35517
-57.77695
-58.62329
-58.85544
-57.90195
-53.9935
-58.85373
-53.77051
-55.12907
-58.06772
-53.01687
-58.78028
-57.94927
-55.36265
-58.69092
-58.97912
-52.54473
-57.84393
-58.88329
-55.83976
-57.82885
-58.06397
-51.70532
-56.63306
-57.93155
-58.15557
-51.38843
-51.74845
-58.79449
-58.99827
-57.618
-57.98785
-51.3318
-58.77293
-58.86746
-59.06767
-57.905
-51.73345
-58.47697
-57.34376
-58.93835
-59.13843
-51.39093
-51.83374
-51.55546
-59.01513
-59.21866
-52.02485
-58.09825
-59.10645
-59.31482
-58.31781
-58.54384
-59.21447
-59.41435
-58.35286
-58.64199
-59.21476
-59.37567
-58.56977
-51.81456
-59.225
-59.47636
-52.301
-58.30445
-59.36816
-52.16519
-58.25622
-58.58289
-52.6626
-59.1623
-58.46721
-58.69301
-59.07658
-56.21306
-58.56132
-58.7733
-58.70763
-58.889
-58.64445
-58.85261
-54.74162
-58.83542
-55.21782
-58.72144
-58.92696
-55.18478
-55.60306
-54.28757
-55.65809
-59.50791
-59.68874
-57.92071
-58.19959
-53.95557
-59.57446
-59.75779
-58.43967
-55.90843
-59.65133
-59.8395
-53.04302
-62.08229
-59.73055
-59.9245
-59.034
-56.17811
-59.80143
-59.99641
-56.66098
-58.88627
-59.88149
-52.69173
-58.82475
-59.14949
-53.03409
-59.61129
-59.04434
-59.21969
-59.52616
-57.01551
-59.02753
-59.22783
-57.01859
-59.38023
-59.13014
-59.32853
-59.31849
-52.49125
-59.22528
-59.41813
-52.84501
-57.5077
-52.53459
-59.30793
-59.49612
-52.92403
-52.65101
-53.06114
-58.75723
-59.38072
-59.56512
-52.83201
-53.25677
-59.14721
-57.33203
-59.44575
-59.62677
-53.07671
-58.14427
-53.51156
-57.24376
-60.13841
-60.30853
-58.97087
-56.7721
-60.22928
-60.45144
-53.38689
-59.31781
-60.38395
-53.83135
-59.30753
-59.60186
-56.70404
-60.08232
-59.57973
-53.76722
-59.97046
-54.21459
-54.21796
-59.53415
-54.67768
-59.80378
-59.53989
-59.72326
-59.76308
-62.16164
-59.65642
-59.83711
-56.21855
-54.40021
-59.7559
-59.93214
-56.35319
-56.88672
-59.14578
-59.84
-60.0109
-54.11401
-58.34427
-59.12608
-57.01096
-59.91044
-60.07649
-58.38493
-53.71916
-57.5108
-53.55889
-59.96882
-60.13079
-53.90877
-58.55072
-57.88574
-53.65254
-60.02203
-60.18228
-58.89262
-58.60168
-54.01369
-60.07595
-60.23708
-58.88371
-59.22649
-59.69586
-60.57166
-59.93585
-61.34031
-60.44819
-53.79337
-54.17064
-59.88129
-57.51112
-60.1553
-59.86355
-60.07706
-60.09136
-60.36506
-59.98811
-60.17313
-60.0983
-53.98163
-60.12624
-60.29758
-54.36691
-59.62933
-60.23393
-60.39595
-54.21244
-59.55944
-54.60232
-60.31928
-60.47424
-54.49057
-54.88059
-54.81023
-55.20411
-60.38731
-60.53624
-55.65692
-55.19235
-55.60117
-55.49499
-60.44008
-60.5838
-55.65322
-56.12126
-55.16304
-56.19337
-60.48454
-60.62427
-59.99167
-59.19435
-55.02114
-60.52607
-60.66343
-59.57132
-57.48177
-60.57844
-60.71792
-54.4955
-54.85484
-60.69474
-62.10772
-57.86898
-59.64173
-60.47179
-60.58763
-54.4981
-60.35264
-60.39777
-54.83666
-60.4152
-60.58286
-58.24427
-60.05578
-60.55982
-60.7142
-59.79425
-54.64812
-60.66532
-60.81225
-58.60604
-54.99607
-59.73813
-60.74911
-60.88909
-58.63761
-58.32853
-59.44558
-58.08327
-60.81447
-60.94772
-54.82195
-55.17313
-58.23818
-57.98096
-60.8629
-60.99041
-55.01676
-55.36862
-58.1109
-58.72068
-60.90009
-61.02284
-55.23404
-55.58373
-58.38014
-60.93067
-61.04938
-57.64846
-55.47792
-60.96149
-61.07293
-55.81926
-59.61796
-60.92227
-61.03408
-59.91862
-57.61131
-60.91329
-55.74843
-56.08473
-60.21295
-56.06791
-60.60299
-60.23638
-56.38988
-55.88606
-56.50068
-60.93996
-61.08483
-61.52645
-55.72795
-61.04635
-61.18113
-62.08465
-56.61005
-55.43578
-61.13025
-61.25621
-56.69582
-57.23824
-55.23604
-57.35181
-61.19313
-61.31107
-54.67913
-58.82788
-56.59478
-56.90715
-61.23598
-61.34679
-58.88168
-56.69164
-56.83965
-57.13312
-61.26432
-61.36835
-56.56511
-56.93744
-57.17804
-61.27917
-61.37495
-56.19925
-59.90956
-61.27521
-61.3609
-59.94779
-60.18559
-61.28471
-62.17518
-60.18219
-60.44295
-60.08114
-61.0488
-60.49335
-57.09247
-60.90496
-61.01503
-57.44877
-60.51421
-60.84354
-60.92273
-60.5608
-60.80589
-60.70638
-56.06486
-60.80455
-60.96766
-57.56493
-59.58325
-55.72028
-61.46589
-61.57816
-57.84187
-55.56287
-57.88735
-58.3054
-61.52508
-61.6291
-55.42656
-58.29869
-55.39283
-55.71426
-61.56219
-61.6583
-55.57108
-59.2058
-55.89581
-58.74563
-61.58072
-61.6695
-59.51141
-55.75934
-56.08591
-61.58201
-61.66267
-58.68997
-55.95588
-61.56391
-61.62813
-56.27849
-60.3569
-61.44808
-61.4879
-60.643
-56.1575
-61.32864
-61.41571
-56.47369
-60.75234
-61.2729
-61.35177
-60.79865
-61.05019
-61.18906
-56.3617
-61.05527
-61.19433
-56.67239
-60.80822
-61.15256
-61.2908
-60.6499
-57.68536
-61.27786
-61.40885
-57.94498
-60.27633
-61.3839
-61.50508
-59.15408
-57.87621
-59.09311
-58.17404
-61.84618
-61.92791
-56.51478
-58.04173
-58.32253
-56.41244
-61.85438
-61.92814
-58.29164
-58.72266
-56.12213
-61.84096
-61.90607
-58.71153
-56.02578
-61.79723
-61.85366
-56.39661
-58.6398
-61.72317
-61.78677
-56.17969
-60.87125
-61.66058
-61.732
-60.96985
-61.18985
-61.60227
-56.50233
-61.26292
-58.60526
-56.40232
-61.26715
-56.71603
-61.38285
-61.11586
-56.61073
-61.44497
-61.56732
-56.91623
-60.84115
-61.57674
-61.6931
-60.75596
-56.80744
-61.68137
-61.7893
-57.10413
-58.55296
-56.99353
-61.76061
-61.8597
-57.28074
-59.02381
-58.64722
-59.48281
-61.81551
-61.90635
-59.74287
-60.01906
-57.16038
-62.06525
-62.11809
-60.15879
-60.4584
-62.02129
-62.07334
-60.4831
-57.44976
-61.97713
-62.04539
-57.37055
-61.01408
-61.96193
-57.65638
-61.34246
-57.55659
-57.8196
-61.66321
-58.77957
-61.47823
-61.51726
-59.14787
-61.53239
-61.68466
-56.89813
-61.21913
-61.69643
-61.81955
-61.11326
-59.15992
-61.83515
-61.94217
-56.83264
-60.51038
-61.93979
-62.03591
-59.06835
-60.16309
-56.89338
-62.01611
-62.10266
-59.02375
-59.32469
-56.93907
-57.23821
-62.06644
-62.14406
-59.23447
-58.9014
-57.17612
-57.46904
-62.09037
-62.15825
-58.9246
-59.54296
-57.39022
-57.67284
-62.08935
-62.14908
-57.89662
-60.88259
-62.19247
-62.09946
-61.23543
-57.58222
-60.44222
-62.00928
-57.85457
-61.55
-61.88165
-57.76503
-61.63726
-57.75432
-58.01616
-61.56573
-57.89912
-61.83629
-61.44398
-61.56163
-61.92356
-62.028
-61.27394
-58.17407
-62.06146
-62.1551
-57.18974
-58.0919
-62.16262
-62.24679
-58.3352
-57.1693
-58.24358
-62.23498
-62.30951
-58.47552
-56.89875
-58.37508
-59.76108
-62.2805
-62.34551
-58.62096
-56.70307
-59.37201
-59.28378
-62.29861
-62.35401
-58.54739
-58.81616
-58.96958
-59.46091
-62.29141
-62.3388
-57.34706
-57.71345
-59.66719
-62.26267
-62.30373
-57.60781
-57.91469
-62.22062
-62.25885
-61.34349
-61.53805
-62.1856
-59.81553
-61.652
-59.49199
-57.87853
-61.90212
-58.158
-61.82237
-61.76702
-61.755
-61.90914
-62.07637
-61.50091
-59.32554
-62.11946
-62.22091
-58.09843
-61.19778
-62.25246
-62.3383
-60.4458
-58.35909
-62.35056
-62.42438
-59.23532
-58.28531
-60.0746
-62.41916
-62.48252
-58.53241
-58.84039
-59.67304
-59.37673
-62.46017
-62.5139
-58.44693
-59.55284
-58.68599
-59.08302
-62.47429
-62.51888
-59.71225
-59.44478
-58.59597
-58.82596
-62.4637
-62.50019
-59.11414
-58.73247
-58.95387
-62.4324
-62.46138
-57.6833
-60.61621
-62.38571
-62.40373
-61.02717
-61.2302
-62.28225
-62.28999
-61.92555
-62.0857
-61.88872
-58.8609
-62.1646
-62.25784
-59.07705
-57.78131
-62.29577
-62.38222
-58.99299
-59.20942
-62.41574
-62.48834
-57.12264
-59.15787
-62.50675
-62.56894
-59.38383
-57.07003
-57.50163
-62.57056
-62.62305
-59.43342
-57.46704
-59.51023
-57.36364
-62.6074
-62.65009
-58.53201
-58.78478
-59.49397
-58.74028
-62.6173
-62.65092
-58.97915
-60.03348
-59.74607
-58.91677
-62.60216
-62.62694
-60.17474
-60.45996
-59.14318
-62.56316
-62.5787
-60.89203
-59.06896
-62.49682
-62.50441
-59.28483
-60.72435
-62.41753
-61.98982
-61.58181
-59.20274
-60.82817
-62.19206
-59.40872
-61.82521
-62.06264
-62.04412
-62.42517
-62.49257
-61.3539
-61.26622
-62.54209
-62.60297
-60.63746
-60.54372
-62.6301
-62.68182
-58.01715
-60.28393
-60.18066
-62.69048
-62.73275
-59.32215
-59.5227
-59.90307
-58.05603
-62.72345
-62.75586
-59.43695
-59.63444
-59.55611
-59.75439
-62.72887
-62.75213
-57.57982
-60.26262
-59.69222
-59.89146
-62.70876
-62.72264
-60.75625
-60.53629
-57.97551
-62.66374
-62.66744
-60.9722
-61.18828
-62.59371
-62.58204
-61.39196
-59.76519
-62.45847
-62.43192
-59.98313
-61.73054
-62.31401
-62.28946
-61.87741
-62.0216
-62.1696
-57.91269
-62.14279
-59.92001
-57.91487
-61.83866
-59.74595
-62.34275
-61.6405
-61.5678
-62.72341
-62.76542
-58.14593
-59.90889
-58.26206
-62.78027
-62.81272
-58.54003
-59.9706
-59.4881
-59.76333
-62.80922
-62.83162
-59.6949
-59.62985
-59.47619
-59.82514
-62.80974
-62.8226
-58.06159
-59.74961
-59.93631
-58.38601
-62.78336
-62.7861
-59.85785
-60.77632
-60.03916
-62.72905
-62.7206
-61.17898
-59.95942
-62.64064
-62.62111
-60.13595
-58.36062
-62.5162
-62.49354
-60.05917
-61.73553
-62.38895
-60.22997
-62.03101
-58.41677
-60.15619
-62.12003
-60.31687
-62.27131
-61.95373
-61.87764
-62.36204
-62.45164
-61.68727
-58.36139
-62.52262
-62.58907
-60.29486
-58.37388
-62.63852
-62.69046
-60.19129
-58.38172
-62.8659
-62.87818
-60.10473
-60.3374
-58.44737
-59.23995
-62.86102
-62.86352
-58.84467
-60.24449
-58.91826
-58.85894
-62.82825
-62.82034
-59.13034
-60.03778
-59.11187
-62.76659
-62.74779
-59.3538
-60.05519
-62.67579
-62.64572
-59.83264
-61.5556
-62.55965
-62.51298
-61.87726
-59.31838
-62.3951
-62.33313
-59.54025
-62.15107
-62.20442
-62.12077
-62.27759
-58.41208
-61.96448
-60.24402
-60.41321
-62.50185
-60.34186
-61.59336
-62.59158
-62.64018
-61.38892
-61.25973
-62.70451
-62.74615
-60.71265
-60.50505
-62.78753
-62.82009
-58.51362
-60.42927
-60.58694
-62.84116
-62.86406
-58.65653
-60.50926
-60.66196
-58.75158
-62.84477
-62.82641
-60.58179
-60.72462
-58.7286
-62.7764
-62.74701
-60.55674
-61.35345
-62.67757
-62.63425
-61.54207
-61.68154
-62.54417
-62.48353
-61.86147
-61.97978
-62.37188
-62.29713
-62.1202
-60.67492
-62.17119
-58.78365
-60.55651
-62.37224
-60.76434
-61.86935
-62.4716
-62.53886
-61.68576
-58.81978
-62.63053
-62.67784
-59.2252
-60.67162
-62.74573
-62.78009
-59.22611
-60.62513
-62.82503
-62.84816
-58.95768
-60.39925
-59.47445
-62.87429
-62.88716
-59.22112
-59.52366
-60.45343
-59.93665
-62.89413
-59.74878
-60.05112
-59.52793
-59.40851
-62.88362
-62.87607
-60.28062
-59.65621
-60.36478
-59.65024
-62.65011
-62.59572
-59.87134
-59.58202
-62.50532
-62.42784
-61.90182
-60.39121
-62.32211
-59.84609
-60.04732
-62.2108
-60.30739
-62.07237
-62.33356
-62.4077
-61.92501
-60.00481
-62.51211
-62.5634
-60.19189
-61.58113
-62.66114
-62.69946
-61.35925
-58.12475
-62.76346
-62.78553
-60.1357
-60.31202
-62.83356
-62.84558
-60.84854